                         Program Version 5.0.3 -  RELEASE  -
|  1> !STEOM-DLPNO-CCSD DEF2-SVP DEF2-SVP/C def2/J RIJCOSX TIGHTSCF CPCM(Ethanol) RI-SOMF(1X) ESD(ABS)
|  2>
|  3> %maxcore  120000
|  4>
|  5> %mdci
|  6> 	NRoots 10 #no of roots
|  7> 	DOSOLV  TRUE
|  8> 	DONTO   TRUE
|  9> end
| 10>
| 11>
| 12> %ESD
| 13> 	GSHESSIAN "Abs_S0_naphtalene_9.GS.hess"
| 14> 	ESHESSIAN "Abs_S0_naphtalene_9.ES.hess"
| 15> 	DOHT TRUE
| 16> END
| 17>
| 18> * xyz 0 1
| 19>   C   -8.96121784812031      0.24268337776474      0.00033489819780
| 20>   C   -7.59059951968750      0.24371545417717      0.00015198745293
| 21>   C   -6.86693343298993      1.46030211281662      0.00023475747764
| 22>   C   -7.58799559947894      2.69205204792658      0.00050997612007
| 23>   C   -9.00310055342497      2.65617792309838      0.00069280404132
| 24>   C   -9.67467975506609      1.46137108557408      0.00060814266859
| 25>   H   -4.90710891896316      0.55933209328366     -0.00016767341217
| 26>   H   -9.50425962457938     -0.69409088109167      0.00026687164944
| 27>   H   -7.04027568972576     -0.68980140749936     -0.00005544925225
| 28>   C   -5.45183741157070      1.49616229462644      0.00005614405431
| 29>   C   -6.86437066397562      3.90865807672096      0.00059715121121
| 30>   H   -9.54784882567221      3.59299899012176      0.00091076313657
| 31>   H   -10.75737868171900      1.44626581403603      0.00074783188745
| 32>   C   -5.49375285629476      3.90967522182525      0.00042517705822
| 33>   C   -4.78028626336214      2.69100004727155      0.00015218718405
| 34>   H   -7.41470937199301      4.84216327382740      0.00079951152285
| 35>   H   -4.95071130646203      4.84645090655905      0.00050815101568
| 36>   H   -3.69758703691443      2.70613312896136      0.00001676798628
| 37> *
| 38>
| 39>
| 40>                          ****END OF INPUT****

CARTESIAN COORDINATES (ANGSTROEM)
---------------------------------
  C     -1.733740   -1.833496   -0.000042
  C     -0.363122   -1.832464   -0.000224
  C      0.360544   -0.615878   -0.000142
  C     -0.360518    0.615872    0.000134
  C     -1.775623    0.579998    0.000316
  C     -2.447202   -0.614809    0.000232
  H      2.320369   -1.516848   -0.000544
  H     -2.276782   -2.770271   -0.000110
  H      0.187202   -2.765981   -0.000432
  C      1.775640   -0.580018   -0.000320
  C      0.363107    1.832478    0.000221
  H     -2.320371    1.516819    0.000534
  H     -3.529901   -0.629914    0.000371
  C      1.733725    1.833495    0.000049
  C      2.447192    0.614820   -0.000224
  H     -0.187232    2.765983    0.000423
  H      2.276767    2.770271    0.000132
  H      3.529891    0.629953   -0.000360

 Total Charge           Charge          ....    0
 Multiplicity           Mult            ....    1
 Number of Electrons    NEL             ....   68
 Basis Dimension        Dim             ....  180

ORBITAL ENERGIES
----------------

  NO   OCC          E(Eh)            E(eV)
   0   2.0000     -11.246995      -306.0463
   1   2.0000     -11.246055      -306.0207
   2   2.0000     -11.240082      -305.8582
   3   2.0000     -11.240053      -305.8574
   4   2.0000     -11.239925      -305.8539
   5   2.0000     -11.239838      -305.8515
   6   2.0000     -11.238756      -305.8221
   7   2.0000     -11.238715      -305.8210
   8   2.0000     -11.237992      -305.8013
   9   2.0000     -11.237973      -305.8008
  10   2.0000      -1.172027       -31.8925
  11   2.0000      -1.104151       -30.0455
  12   2.0000      -1.043901       -28.4060
  13   2.0000      -1.001741       -27.2588
  14   2.0000      -0.974164       -26.5083
  15   2.0000      -0.849332       -23.1115
  16   2.0000      -0.832758       -22.6605
  17   2.0000      -0.808819       -22.0091
  18   2.0000      -0.701972       -19.1016
  19   2.0000      -0.701111       -19.0782
  20   2.0000      -0.681293       -18.5389
  21   2.0000      -0.620200       -16.8765
  22   2.0000      -0.616483       -16.7754
  23   2.0000      -0.590475       -16.0676
  24   2.0000      -0.585670       -15.9369
  25   2.0000      -0.564578       -15.3630
  26   2.0000      -0.541175       -14.7261
  27   2.0000      -0.526323       -14.3220
  28   2.0000      -0.492937       -13.4135
  29   2.0000      -0.479372       -13.0444
  30   2.0000      -0.454399       -12.3648
  31   2.0000      -0.392375       -10.6771
  32   2.0000      -0.326003        -8.8710
  33   2.0000      -0.294346        -8.0096
  34   0.0000       0.084223         2.2918
  35   0.0000       0.113588         3.0909
  36   0.0000       0.172091         4.6828
  37   0.0000       0.194228         5.2852
  38   0.0000       0.210579         5.7302

E(0)                                       ...   -383.081461211
E(0)                                       ...   -383.081461211
E(CORR)(strong-pairs)                      ...     -1.333692175
E(CORR)(weak-pairs)                        ...     -0.004801751
E(CORR)(corrected)                         ...     -1.338493926
E(TOT)                                     ...   -384.419955137

MULLIKEN ATOMIC CHARGES
-----------------------
   0 C :   -0.033718
   1 C :   -0.023536
   2 C :   -0.031998
   3 C :   -0.032010
   4 C :   -0.024265
   5 C :   -0.033517
   6 H :    0.031431
   7 H :    0.042074
   8 H :    0.031375
   9 C :   -0.024265
  10 C :   -0.023522
  11 H :    0.031429
  12 H :    0.042154
  13 C :   -0.033721
  14 C :   -0.033515
  15 H :    0.031376
  16 H :    0.042074
  17 H :    0.042154
Sum of atomic charges:    0.0000000

LOEWDIN ATOMIC CHARGES
----------------------
   0 C :   -0.031262
   1 C :   -0.019373
   2 C :   -0.031435
   3 C :   -0.031433
   4 C :   -0.019439
   5 C :   -0.031420
   6 H :    0.033194
   7 H :    0.033256
   8 H :    0.033225
   9 C :   -0.019437
  10 C :   -0.019370
  11 H :    0.033193
  12 H :    0.033250
  13 C :   -0.031263
  14 C :   -0.031419
  15 H :    0.033227
  16 H :    0.033257
  17 H :    0.033250

  Mayer bond orders larger than 0.100000
B(  0-C ,  1-C ) :   1.4248 B(  0-C ,  5-C ) :   1.1645 B(  0-C ,  7-H ) :   0.9500
B(  1-C ,  2-C ) :   1.1541 B(  1-C ,  8-H ) :   0.9555 B(  2-C ,  3-C ) :   1.1957
B(  2-C ,  9-C ) :   1.1539 B(  3-C ,  4-C ) :   1.1539 B(  3-C , 10-C ) :   1.1541
B(  4-C ,  5-C ) :   1.4246 B(  4-C , 11-H ) :   0.9554 B(  5-C , 12-H ) :   0.9499
B(  6-H ,  9-C ) :   0.9554 B(  9-C , 14-C ) :   1.4246 B( 10-C , 13-C ) :   1.4248
B( 10-C , 15-H ) :   0.9555 B( 13-C , 14-C ) :   1.1645 B( 13-C , 16-H ) :   0.9500
B( 14-C , 17-H ) :   0.9499

-----------------------------------------------------------------------------
         ABSORPTION SPECTRUM VIA TRANSITION ELECTRIC DIPOLE MOMENTS
-----------------------------------------------------------------------------
State   Energy  Wavelength   fosc         T2         TX        TY        TZ
        (cm-1)    (nm)                  (au**2)     (au)      (au)      (au)
-----------------------------------------------------------------------------
   1   33197.1    301.2   0.000007238   0.00007   0.00621   0.00535   0.00000
   2   42265.7    236.6   0.111891420   0.87153   0.47328   0.80470   0.00017
   3   48768.0    205.1   0.000000205   0.00000   0.00103   0.00057   0.00001
   4   52254.8    191.4   1.479727182   9.32248   2.63371   1.54469   0.00012
   5   54034.6    185.1   0.000000195   0.00000   0.00067   0.00075   0.00001
   6   54822.4    182.4   0.298240538   1.79095   0.67912   1.15315   0.00024
   7   56993.1    175.5   0.000001111   0.00001   0.00115   0.00196   0.00002
   8   58833.4    170.0   0.000000687   0.00000   0.00165   0.00068   0.00017
   9   64699.2    154.6   0.000000359   0.00000   0.00006   0.00133   0.00003
  10   68084.0    146.9   0.000009652   0.00005   0.00357   0.00538   0.00043

FINAL SINGLE POINT ENERGY      -384.268698000576

DIPOLE MOMENT
-------------
                                X             Y             Z
Electronic contribution:      0.00005       0.00000      -0.00001
Nuclear contribution   :     -0.00005       0.00001       0.00001
                        -----------------------------------------
Total Dipole Moment    :      0.00000       0.00002       0.00000
                        -----------------------------------------
Magnitude (a.u.)       :      0.00002
Magnitude (Debye)      :      0.00004

Rotational constants in cm-1:     0.104651     0.041365     0.029647
Rotational constants in MHz :  3137.370576  1240.091757   888.786035

                             ****ORCA TERMINATED NORMALLY****
TOTAL RUN TIME: 1 days 5 hours 10 minutes 5 seconds 547 msec
