                         Program Version 5.0.3 -  RELEASE  -
|  1> !DLPNO-CCSD(T) DEF2-TZVP DEF2-TZVP/C def2/J RIJCOSX TIGHTSCF CPCM(CH2Cl2) RI-SOMF(1X)
|  2>
|  3> %maxcore  120000
|  4>
|  5> %mdci
|  6> 	DOSOLV  TRUE
|  7> 	Maxiter 1000 # maxiter, probably last two is just overkilling
|  8> end
|  9>
| 10> # pyrazine_Nickel
| 11>
| 12> * XYZ 0 1
| 13>   Ni  -0.00004905151749     -0.00032530939270     -0.00001471778878
| 14>   N   -0.00018003405306     -0.00038348337546      1.87765472430437
| 15>   N   -0.00027191516755     -0.00029271173073      4.57250133115961
| 16>   C   1.15122009318728     -0.23393496342743      2.52544449547331
| 17>   C   4.43085332617003     -0.17427538493204     -0.09912120128954
| 18>   C   3.64444303428642     -0.02311707618454      2.15823986567297
| 19>   H   3.82931504469430      0.13052165358663      3.20934918533445
| 20>   C   4.69287310970436      0.00736998914583      1.25148725329594
| 21>   C   1.08142579250700     -0.40628995736947      3.92088626753917
| 22>   N   2.10508024814931     -0.36798340960615      0.36728189295218
| 23>   C   3.64217724170561     -2.78185482321523      4.84597161125224
| 24>   N   2.71332296702831     -2.13372169779124      4.14756666900360
| 25>   C   2.45378412333729     -0.61795242327778      5.99459595281878
| 26>   H   1.95163576909041      0.24489255884187      6.40815999758204
| 27>   C   2.35595513185214     -0.23745956116808      1.68169648968768
| 28>   C   4.04115537494975     -2.39912073539897      6.12340456136883
| 29>   H   4.80761231986730     -2.95819454376136      6.64302055343803
| 30>   C   3.11330117466061     -0.34648057359991     -0.49914986413626
| 31>   C   2.13549413551763     -1.06838266071298      4.71691106616049
| 32>   C   3.43276243419510     -1.29697704518439      6.70649120880743
| 33>   H   3.71562854953635     -0.96875492709544      7.69824732192107
| 34>   H   5.70350415408763      0.17498963609512      1.59945746320693
| 35>   H   4.08863795548124     -3.64647674650045      4.36741105837627
| 36>   H   5.22366610293311     -0.16658834852134     -0.83411357278990
| 37>   H   2.85754436811149     -0.46086928237183     -1.54506278731911
| 38>   C   -1.15165109287196      0.23318673433871      2.52532467338342
| 39>   C   -4.43089576070260      0.17326148272034     -0.09980156853544
| 40>   C   -3.64481858051011      0.02170057868628      2.15764485169873
| 41>   H   -3.82984080029778     -0.13231831657084      3.20865502557927
| 42>   C   -4.69308915883512     -0.00880604256306      1.25071216919668
| 43>   C   -1.08192702868167      0.40568896531451      3.92078855645241
| 44>   N   -2.10523068321117      0.36726298709973      0.36702482295057
| 45>   C   -3.64028764861000      2.78383238007621      4.84594240988097
| 46>   N   -2.71206565856752      2.13481062882705      4.14752770818408
| 47>   C   -2.45443105332428      0.61839007248779      5.99428100410127
| 48>   H   -1.95323500827913     -0.24504423072588      6.40776744193889
| 49>   C   -2.35629408657830      0.23653421112147      1.68139056252779
| 50>   C   -4.03990136390906      2.40124314499136      6.12322036615618
| 51>   H   -4.80581759395103      2.96104978312012      6.64284486168421
| 52>   C   -3.11330994628749      0.34575623296289     -0.49957502181722
| 53>   C   -2.13557064327109      1.06863802893219      4.71667308511747
| 54>   C   -3.43278439233415      1.29832564282045      6.70617015730736
| 55>   H   -3.71612544984867      0.97022859042073      7.69783188839947
| 56>   H   -5.70373549068832     -0.17677103773250      1.59847132962050
| 57>   H   -4.08571777051557      3.64905398439383      4.36750545483330
| 58>   H   -5.22358182072635      0.16554319101821     -0.83493063011017
| 59>   H   -2.85739259430415      0.46031181104890     -1.54543051957768
| 60>   N   0.00007077724049     -0.00025118886815     -1.87769193212261
| 61>   N   0.00016360021363     -0.00009248982833     -4.57256108128375
| 62>   C   -0.23306612835918     -1.15173024249051     -2.52548535199491
| 63>   C   -0.17409940099907     -4.43128837685083      0.09911816101898
| 64>   C   -0.02256515644157     -3.64491575056968     -2.15823430830073
| 65>   H   0.13108303232747     -3.82980383575549     -3.20935449480821
| 66>   C   0.00768178743126     -4.69334500122092     -1.25146986364192
| 67>   C   -0.40495586388864     -1.08215888850597     -3.92098428321520
| 68>   N   -0.36762199709251     -2.10550515122348     -0.36732829932019
| 69>   C   -2.77659230659125     -3.64663245539540     -4.84577221611607
| 70>   N   -2.12985077324999     -2.71673123119242     -4.14746565318720
| 71>   C   -0.61491992710669     -2.45459395546054     -5.99482585919072
| 72>   H   0.24705929389134     -1.95106483420929     -6.40851803817344
| 73>   C   -0.23674880786180     -2.35640834693480     -1.68170030382750
| 74>   C   -2.39351801189122     -4.04486691381634     -6.12333541577190
| 75>   H   -2.95143907887071     -4.81222050597466     -6.64286689712886
| 76>   C   -0.34632154280382     -3.11372043625576      0.49911218833638
| 77>   C   -1.06567415026926     -2.13702905518732     -4.71707551708793
| 78>   C   -1.29250425712357     -3.43463025047478     -6.70663326999137
| 79>   H   -0.96401688863576     -3.71692524430026     -7.69846448598802
| 80>   H   0.17520760778500     -5.70400112804701     -1.59941285614935
| 81>   H   -3.64034622443471     -4.09457455677688     -4.36702870489247
| 82>   H   -0.16661075733232     -5.22409998734376      0.83411398564478
| 83>   H   -0.46093784906744     -2.85795745983772      1.54499916735524
| 84>   C   0.23326436762722      1.15128872917615     -2.52534953049086
| 85>   C   0.17420215135589      4.43065141482459      0.09944806065742
| 86>   C   0.02311096369343      3.64444796460744     -2.15799527103656
| 87>   H   -0.13021887609455      3.82941797438140     -3.20915711230215
| 88>   C   -0.00721026967835      4.69282381138194     -1.25116946085244
| 89>   C   0.40522059848916      1.08189654424534     -3.92082739990036
| 90>   N   0.36759872166598      2.10488116769999     -0.36710900956034
| 91>   C   2.77551794036789      3.64784890619395     -4.84489789493308
| 92>   N   2.12919365117135      2.71748359004552     -4.14681991073455
| 93>   C   0.61484257021107      2.45457764823157     -5.99455059654755
| 94>   H   -0.24675857521499      1.95058333279263     -6.40846533988447
| 95>   C   0.23696776739297      2.35588564398253     -1.68148097080718
| 96>   C   2.39251106177778      4.04593182217275     -6.12252817293183
| 97>   H   2.95008149699231      4.81366986246005     -6.64186784011199
| 98>   C   0.34621996849678      3.11303889736099      0.49939402810875
| 99>   C   1.06555238098492      2.13712630679228     -4.71675688199039
|100>   C   1.29199869460880      3.43507619508981     -6.70612662942334
|101>   H   0.96355616622365      3.71726451784529     -7.69800310259310
|102>   H   -0.17450408070742      5.70352668446661     -1.59908810699903
|103>   H   3.63887904814922      4.09629068501220     -4.36591367475226
|104>   H   0.16666407652238      5.22341861924766      0.83449117240972
|105>   H   0.46064537508578      2.85719997266918      1.54528351950867
|106> *
|107>
|108>
|109>                          ****END OF INPUT****

CARTESIAN COORDINATES (ANGSTROEM)
---------------------------------
  Ni    -0.000049   -0.000325   -0.000015
  N     -0.000180   -0.000383    1.877655
  N     -0.000272   -0.000293    4.572501
  C      1.151220   -0.233935    2.525444
  C      4.430853   -0.174275   -0.099121
  C      3.644443   -0.023117    2.158240
  H      3.829315    0.130522    3.209349
  C      4.692873    0.007370    1.251487
  C      1.081426   -0.406290    3.920886
  N      2.105080   -0.367983    0.367282
  C      3.642177   -2.781855    4.845972
  N      2.713323   -2.133722    4.147567
  C      2.453784   -0.617952    5.994596
  H      1.951636    0.244893    6.408160
  C      2.355955   -0.237460    1.681696
  C      4.041155   -2.399121    6.123405
  H      4.807612   -2.958195    6.643021
  C      3.113301   -0.346481   -0.499150
  C      2.135494   -1.068383    4.716911
  C      3.432762   -1.296977    6.706491
  H      3.715629   -0.968755    7.698247
  H      5.703504    0.174990    1.599457
  H      4.088638   -3.646477    4.367411
  H      5.223666   -0.166588   -0.834114
  H      2.857544   -0.460869   -1.545063
  C     -1.151651    0.233187    2.525325
  C     -4.430896    0.173261   -0.099802
  C     -3.644819    0.021701    2.157645
  H     -3.829841   -0.132318    3.208655
  C     -4.693089   -0.008806    1.250712
  C     -1.081927    0.405689    3.920789
  N     -2.105231    0.367263    0.367025
  C     -3.640288    2.783832    4.845942
  N     -2.712066    2.134811    4.147528
  C     -2.454431    0.618390    5.994281
  H     -1.953235   -0.245044    6.407767
  C     -2.356294    0.236534    1.681391
  C     -4.039901    2.401243    6.123220
  H     -4.805818    2.961050    6.642845
  C     -3.113310    0.345756   -0.499575
  C     -2.135571    1.068638    4.716673
  C     -3.432784    1.298326    6.706170
  H     -3.716125    0.970229    7.697832
  H     -5.703735   -0.176771    1.598471
  H     -4.085718    3.649054    4.367505
  H     -5.223582    0.165543   -0.834931
  H     -2.857393    0.460312   -1.545431
  N      0.000071   -0.000251   -1.877692
  N      0.000164   -0.000092   -4.572561
  C     -0.233066   -1.151730   -2.525485
  C     -0.174099   -4.431288    0.099118
  C     -0.022565   -3.644916   -2.158234
  H      0.131083   -3.829804   -3.209354
  C      0.007682   -4.693345   -1.251470
  C     -0.404956   -1.082159   -3.920984
  N     -0.367622   -2.105505   -0.367328
  C     -2.776592   -3.646632   -4.845772
  N     -2.129851   -2.716731   -4.147466
  C     -0.614920   -2.454594   -5.994826
  H      0.247059   -1.951065   -6.408518
  C     -0.236749   -2.356408   -1.681700
  C     -2.393518   -4.044867   -6.123335
  H     -2.951439   -4.812221   -6.642867
  C     -0.346322   -3.113720    0.499112
  C     -1.065674   -2.137029   -4.717076
  C     -1.292504   -3.434630   -6.706633
  H     -0.964017   -3.716925   -7.698464
  H      0.175208   -5.704001   -1.599413
  H     -3.640346   -4.094575   -4.367029
  H     -0.166611   -5.224100    0.834114
  H     -0.460938   -2.857957    1.544999
  C      0.233264    1.151289   -2.525350
  C      0.174202    4.430651    0.099448
  C      0.023111    3.644448   -2.157995
  H     -0.130219    3.829418   -3.209157
  C     -0.007210    4.692824   -1.251169
  C      0.405221    1.081897   -3.920827
  N      0.367599    2.104881   -0.367109
  C      2.775518    3.647849   -4.844898
  N      2.129194    2.717484   -4.146820
  C      0.614843    2.454578   -5.994551
  H     -0.246759    1.950583   -6.408465
  C      0.236968    2.355886   -1.681481
  C      2.392511    4.045932   -6.122528
  H      2.950081    4.813670   -6.641868
  C      0.346220    3.113039    0.499394
  C      1.065552    2.137126   -4.716757
  C      1.291999    3.435076   -6.706127
  H      0.963556    3.717265   -7.698003
  H     -0.174504    5.703527   -1.599088
  H      3.638879    4.096291   -4.365914
  H      0.166664    5.223419    0.834491
  H      0.460645    2.857200    1.545284

 Total Charge           Charge          ....    0
 Multiplicity           Mult            ....    1
 Number of Electrons    NEL             ....  432
 Basis Dimension        Dim             .... 2097

ORBITAL ENERGIES
----------------

  NO   OCC          E(Eh)            E(eV)
   0   2.0000    -305.506893     -8313.2652
   1   2.0000     -37.804203     -1028.7047
   2   2.0000     -32.856551      -894.0722
   3   2.0000     -32.819636      -893.0677
   4   2.0000     -32.814783      -892.9356
   5   2.0000     -15.637825      -425.5269
   6   2.0000     -15.616372      -424.9431
   7   2.0000     -15.587112      -424.1469
   8   2.0000     -15.586160      -424.1210
   9   2.0000     -15.580589      -423.9694
  10   2.0000     -15.579929      -423.9514
  11   2.0000     -15.575586      -423.8333
  12   2.0000     -15.554843      -423.2688
  13   2.0000     -15.540509      -422.8788
  14   2.0000     -15.519901      -422.3180
  15   2.0000     -15.501500      -421.8173
  16   2.0000     -15.489879      -421.5010
  17   2.0000     -11.328293      -308.2585
  18   2.0000     -11.328162      -308.2550
  19   2.0000     -11.318902      -308.0030
  20   2.0000     -11.318805      -308.0003
  21   2.0000     -11.305135      -307.6284
  22   2.0000     -11.305125      -307.6281
  23   2.0000     -11.297542      -307.4218
  24   2.0000     -11.297088      -307.4094
  25   2.0000     -11.283540      -307.0407
  26   2.0000     -11.283484      -307.0392
  27   2.0000     -11.283388      -307.0366
  28   2.0000     -11.282539      -307.0135
  29   2.0000     -11.281888      -306.9958
  30   2.0000     -11.276574      -306.8512
  31   2.0000     -11.267752      -306.6111
  32   2.0000     -11.263703      -306.5009
  33   2.0000     -11.263203      -306.4873
  34   2.0000     -11.263099      -306.4845
  35   2.0000     -11.262961      -306.4807
  36   2.0000     -11.262547      -306.4695
  37   2.0000     -11.258211      -306.3515
  38   2.0000     -11.256840      -306.3142
  39   2.0000     -11.256796      -306.3130
  40   2.0000     -11.254167      -306.2414
  41   2.0000     -11.253002      -306.2098
  42   2.0000     -11.252926      -306.2077
  43   2.0000     -11.252064      -306.1842
  44   2.0000     -11.251444      -306.1673
  45   2.0000     -11.250436      -306.1399
  46   2.0000     -11.250093      -306.1306
  47   2.0000     -11.247499      -306.0600
  48   2.0000     -11.247110      -306.0494
  49   2.0000     -11.247050      -306.0478
  50   2.0000     -11.247004      -306.0465
  51   2.0000     -11.245109      -305.9950
  52   2.0000     -11.238813      -305.8237
  53   2.0000     -11.236817      -305.7693
  54   2.0000     -11.235479      -305.7329
  55   2.0000     -11.234884      -305.7167
  56   2.0000     -11.227613      -305.5189
  57   2.0000     -11.225914      -305.4726
  58   2.0000     -11.220119      -305.3150
  59   2.0000     -11.215032      -305.1765
  60   2.0000     -11.213345      -305.1306
  61   2.0000     -11.203794      -304.8707
  62   2.0000     -11.197174      -304.6906
  63   2.0000     -11.187184      -304.4188
  64   2.0000     -11.185844      -304.3823
  65   2.0000      -4.773355      -129.8896
  66   2.0000      -3.189376       -86.7873
  67   2.0000      -3.162938       -86.0679
  68   2.0000      -3.159563       -85.9761
  69   2.0000      -1.361655       -37.0525
  70   2.0000      -1.295555       -35.2538
  71   2.0000      -1.291228       -35.1361
  72   2.0000      -1.282832       -34.9076
  73   2.0000      -1.281850       -34.8809
  74   2.0000      -1.277579       -34.7647
  75   2.0000      -1.264674       -34.4135
  76   2.0000      -1.252636       -34.0860
  77   2.0000      -1.251524       -34.0557
  78   2.0000      -1.242982       -33.8233
  79   2.0000      -1.227939       -33.4139
  80   2.0000      -1.163500       -31.6604
  81   2.0000      -1.137986       -30.9662
  82   2.0000      -1.103488       -30.0274
  83   2.0000      -1.103349       -30.0237
  84   2.0000      -1.100170       -29.9371
  85   2.0000      -1.099784       -29.9267
  86   2.0000      -1.090425       -29.6720
  87   2.0000      -1.081158       -29.4198
  88   2.0000      -1.075510       -29.2661
  89   2.0000      -1.073168       -29.2024
  90   2.0000      -1.070323       -29.1250
  91   2.0000      -1.066786       -29.0287
  92   2.0000      -1.055354       -28.7176
  93   2.0000      -1.050435       -28.5838
  94   2.0000      -1.043158       -28.3858
  95   2.0000      -1.021318       -27.7915
  96   2.0000      -1.017164       -27.6785
  97   2.0000      -1.013807       -27.5871
  98   2.0000      -0.967795       -26.3351
  99   2.0000      -0.952339       -25.9145
 100   2.0000      -0.949601       -25.8400
 101   2.0000      -0.900929       -24.5155
 102   2.0000      -0.887891       -24.1608
 103   2.0000      -0.886788       -24.1307
 104   2.0000      -0.882455       -24.0128
 105   2.0000      -0.880927       -23.9712
 106   2.0000      -0.871115       -23.7043
 107   2.0000      -0.870389       -23.6845
 108   2.0000      -0.860487       -23.4150
 109   2.0000      -0.856749       -23.3133
 110   2.0000      -0.853228       -23.2175
 111   2.0000      -0.851290       -23.1648
 112   2.0000      -0.849558       -23.1176
 113   2.0000      -0.842787       -22.9334
 114   2.0000      -0.832671       -22.6581
 115   2.0000      -0.830264       -22.5926
 116   2.0000      -0.816790       -22.2260
 117   2.0000      -0.798766       -21.7355
 118   2.0000      -0.784815       -21.3559
 119   2.0000      -0.769926       -20.9508
 120   2.0000      -0.758057       -20.6278
 121   2.0000      -0.749093       -20.3839
 122   2.0000      -0.730022       -19.8649
 123   2.0000      -0.726380       -19.7658
 124   2.0000      -0.716520       -19.4975
 125   2.0000      -0.714456       -19.4413
 126   2.0000      -0.693072       -18.8595
 127   2.0000      -0.691104       -18.8059
 128   2.0000      -0.688414       -18.7327
 129   2.0000      -0.684037       -18.6136
 130   2.0000      -0.681858       -18.5543
 131   2.0000      -0.678676       -18.4677
 132   2.0000      -0.677358       -18.4318
 133   2.0000      -0.672761       -18.3068
 134   2.0000      -0.665808       -18.1176
 135   2.0000      -0.664085       -18.0707
 136   2.0000      -0.659191       -17.9375
 137   2.0000      -0.655223       -17.8295
 138   2.0000      -0.654308       -17.8046
 139   2.0000      -0.651963       -17.7408
 140   2.0000      -0.647747       -17.6261
 141   2.0000      -0.641374       -17.4527
 142   2.0000      -0.637322       -17.3424
 143   2.0000      -0.634231       -17.2583
 144   2.0000      -0.625134       -17.0108
 145   2.0000      -0.623051       -16.9541
 146   2.0000      -0.622213       -16.9313
 147   2.0000      -0.615000       -16.7350
 148   2.0000      -0.613133       -16.6842
 149   2.0000      -0.612063       -16.6551
 150   2.0000      -0.607010       -16.5176
 151   2.0000      -0.605076       -16.4650
 152   2.0000      -0.601433       -16.3658
 153   2.0000      -0.600669       -16.3450
 154   2.0000      -0.596654       -16.2358
 155   2.0000      -0.595174       -16.1955
 156   2.0000      -0.590962       -16.0809
 157   2.0000      -0.589366       -16.0375
 158   2.0000      -0.582711       -15.8564
 159   2.0000      -0.580250       -15.7894
 160   2.0000      -0.574425       -15.6309
 161   2.0000      -0.572702       -15.5840
 162   2.0000      -0.571347       -15.5472
 163   2.0000      -0.567006       -15.4290
 164   2.0000      -0.566445       -15.4137
 165   2.0000      -0.563432       -15.3318
 166   2.0000      -0.559679       -15.2296
 167   2.0000      -0.554649       -15.0928
 168   2.0000      -0.551438       -15.0054
 169   2.0000      -0.549962       -14.9652
 170   2.0000      -0.544816       -14.8252
 171   2.0000      -0.540875       -14.7180
 172   2.0000      -0.538512       -14.6536
 173   2.0000      -0.537437       -14.6244
 174   2.0000      -0.534084       -14.5332
 175   2.0000      -0.533290       -14.5116
 176   2.0000      -0.531066       -14.4510
 177   2.0000      -0.526361       -14.3230
 178   2.0000      -0.519602       -14.1391
 179   2.0000      -0.516723       -14.0607
 180   2.0000      -0.510513       -13.8918
 181   2.0000      -0.505781       -13.7630
 182   2.0000      -0.493936       -13.4407
 183   2.0000      -0.484897       -13.1947
 184   2.0000      -0.481378       -13.0990
 185   2.0000      -0.477679       -12.9983
 186   2.0000      -0.466424       -12.6921
 187   2.0000      -0.461141       -12.5483
 188   2.0000      -0.455834       -12.4039
 189   2.0000      -0.439912       -11.9706
 190   2.0000      -0.438779       -11.9398
 191   2.0000      -0.429633       -11.6909
 192   2.0000      -0.425444       -11.5769
 193   2.0000      -0.422136       -11.4869
 194   2.0000      -0.417832       -11.3698
 195   2.0000      -0.405712       -11.0400
 196   2.0000      -0.401090       -10.9142
 197   2.0000      -0.399501       -10.8710
 198   2.0000      -0.396032       -10.7766
 199   2.0000      -0.392029       -10.6676
 200   2.0000      -0.390412       -10.6236
 201   2.0000      -0.385299       -10.4845
 202   2.0000      -0.383473       -10.4348
 203   2.0000      -0.374281       -10.1847
 204   2.0000      -0.369391       -10.0517
 205   2.0000      -0.366205        -9.9649
 206   2.0000      -0.364561        -9.9202
 207   2.0000      -0.361897        -9.8477
 208   2.0000      -0.355760        -9.6807
 209   2.0000      -0.353374        -9.6158
 210   2.0000      -0.343746        -9.3538
 211   2.0000      -0.328715        -8.9448
 212   2.0000      -0.325423        -8.8552
 213   2.0000      -0.306085        -8.3290
 214   2.0000      -0.265894        -7.2354
 215   2.0000      -0.114992        -3.1291
 216   0.0000       0.022419         0.6101
 217   0.0000       0.027107         0.7376
 218   0.0000       0.064459         1.7540
 219   0.0000       0.085876         2.3368
 220   0.0000       0.086540         2.3549

MULLIKEN ATOMIC CHARGES
-----------------------
   0 Ni:    0.684062
   1 N :   -0.286732
   2 N :   -0.565720
   3 C :    0.096747
   4 C :   -0.179201
   5 C :   -0.366397
   6 H :    0.167391
   7 C :   -0.092651
   8 C :    0.225238
   9 N :   -0.348741
  10 C :   -0.045193
  11 N :   -0.468059
  12 C :   -0.291830
  13 H :    0.139474
  14 C :    0.348026
  15 C :   -0.167141
  16 H :    0.151350
  17 C :   -0.010177
  18 C :    0.193743
  19 C :   -0.124244
  20 H :    0.156710
  21 H :    0.169035
  22 H :    0.138843
  23 H :    0.160825
  24 H :    0.159261
  25 C :   -0.082849
  26 C :   -0.326421
  27 C :   -0.475905
  28 H :    0.137972
  29 C :   -0.090453
  30 C :    0.300607
  31 N :   -0.449448
  32 C :   -0.051893
  33 N :   -0.425698
  34 C :   -0.252554
  35 H :    0.148089
  36 C :    0.388339
  37 C :   -0.121263
  38 H :    0.159328
  39 C :    0.002981
  40 C :    0.174945
  41 C :   -0.138251
  42 H :    0.162028
  43 H :    0.146149
  44 H :    0.145295
  45 H :    0.130868
  46 H :    0.135772
  47 N :   -0.072752
  48 N :   -0.387864
  49 C :    0.197893
  50 C :   -0.142530
  51 C :   -0.322999
  52 H :    0.178921
  53 C :   -0.099700
  54 C :    0.317634
  55 N :   -0.325376
  56 C :   -0.044215
  57 N :   -0.438419
  58 C :   -0.235941
  59 H :    0.169402
  60 C :    0.306127
  61 C :   -0.098254
  62 H :    0.171669
  63 C :   -0.024534
  64 C :    0.177460
  65 C :   -0.138239
  66 H :    0.172216
  67 H :    0.176087
  68 H :    0.158871
  69 H :    0.170975
  70 H :    0.174163
  71 C :    0.187504
  72 C :   -0.141729
  73 C :   -0.321846
  74 H :    0.179035
  75 C :   -0.099759
  76 C :    0.318844
  77 N :   -0.325224
  78 C :   -0.044069
  79 N :   -0.439973
  80 C :   -0.235168
  81 H :    0.170118
  82 C :    0.314170
  83 C :   -0.098539
  84 H :    0.171702
  85 C :   -0.027855
  86 C :    0.177267
  87 C :   -0.137956
  88 H :    0.172520
  89 H :    0.175985
  90 H :    0.158258
  91 H :    0.170580
  92 H :    0.173284
Sum of atomic charges:    0.0000000

LOEWDIN ATOMIC CHARGES
----------------------
   0 Ni:    0.075572
   1 N :    0.117631
   2 N :    0.072231
   3 C :   -0.138713
   4 C :   -0.152586
   5 C :   -0.092730
   6 H :    0.158300
   7 C :   -0.093552
   8 C :   -0.271151
   9 N :    0.203836
  10 C :   -0.197474
  11 N :    0.086911
  12 C :   -0.137155
  13 H :    0.145663
  14 C :   -0.118435
  15 C :   -0.194316
  16 H :    0.141361
  17 C :   -0.155775
  18 C :   -0.186013
  19 C :   -0.112663
  20 H :    0.146889
  21 H :    0.152792
  22 H :    0.134576
  23 H :    0.148781
  24 H :    0.144474
  25 C :   -0.277293
  26 C :   -0.260518
  27 C :   -0.154173
  28 H :    0.144783
  29 C :   -0.147991
  30 C :   -0.157308
  31 N :    0.136935
  32 C :   -0.188912
  33 N :    0.115737
  34 C :   -0.114485
  35 H :    0.150125
  36 C :   -0.193813
  37 C :   -0.162718
  38 H :    0.145940
  39 C :   -0.188345
  40 C :   -0.162957
  41 C :   -0.103264
  42 H :    0.149806
  43 H :    0.141105
  44 H :    0.137425
  45 H :    0.132386
  46 H :    0.134843
  47 N :    0.279816
  48 N :    0.230775
  49 C :   -0.061414
  50 C :   -0.125112
  51 C :   -0.083994
  52 H :    0.159676
  53 C :   -0.080721
  54 C :   -0.111234
  55 N :    0.218327
  56 C :   -0.170828
  57 N :    0.122879
  58 C :   -0.098026
  59 H :    0.156274
  60 C :   -0.137260
  61 C :   -0.136712
  62 H :    0.151820
  63 C :   -0.130876
  64 C :   -0.178171
  65 C :   -0.088100
  66 H :    0.154750
  67 H :    0.156564
  68 H :    0.143416
  69 H :    0.153928
  70 H :    0.152183
  71 C :   -0.061822
  72 C :   -0.125129
  73 C :   -0.083666
  74 H :    0.159761
  75 C :   -0.080801
  76 C :   -0.111539
  77 N :    0.218660
  78 C :   -0.171498
  79 N :    0.121873
  80 C :   -0.097440
  81 H :    0.156540
  82 C :   -0.137309
  83 C :   -0.136777
  84 H :    0.151831
  85 C :   -0.131538
  86 C :   -0.178117
  87 C :   -0.087697
  88 H :    0.154882
  89 H :    0.156570
  90 H :    0.143149
  91 H :    0.153881
  92 H :    0.152466

  Mayer bond orders larger than 0.100000
B(  0-Ni,  1-N ) :   0.5966 B(  0-Ni,  9-N ) :   0.2510 B(  0-Ni, 31-N ) :   0.2948
B(  0-Ni, 47-N ) :   0.4603 B(  0-Ni, 55-N ) :   0.1923 B(  0-Ni, 77-N ) :   0.1919
B(  1-N ,  3-C ) :   1.2984 B(  1-N ,  9-N ) :  -0.1186 B(  1-N , 25-C ) :   0.9205
B(  1-N , 31-N ) :  -0.1020 B(  2-N ,  8-C ) :   1.0832 B(  2-N , 30-C ) :   1.6581
B(  3-C ,  8-C ) :   1.4774 B(  3-C , 14-C ) :   0.9745 B(  4-C ,  7-C ) :   1.3907
B(  4-C , 17-C ) :   1.4439 B(  4-C , 23-H ) :   0.9841 B(  5-C ,  6-H ) :   0.9947
B(  5-C ,  7-C ) :   1.4831 B(  5-C , 14-C ) :   1.4576 B(  7-C , 21-H ) :   0.9688
B(  8-C , 14-C ) :  -0.1011 B(  8-C , 18-C ) :   1.0447 B(  9-N , 14-C ) :   1.2776
B(  9-N , 17-C ) :   1.4061 B( 10-C , 11-N ) :   1.5112 B( 10-C , 15-C ) :   1.4245
B( 10-C , 22-H ) :   0.9904 B( 11-N , 18-C ) :   1.3286 B( 12-C , 13-H ) :   0.9899
B( 12-C , 18-C ) :   1.4235 B( 12-C , 19-C ) :   1.4823 B( 15-C , 16-H ) :   0.9795
B( 15-C , 19-C ) :   1.3963 B( 17-C , 24-H ) :   0.9762 B( 19-C , 20-H ) :   0.9774
B( 25-C , 30-C ) :   1.2047 B( 25-C , 36-C ) :   1.3061 B( 26-C , 29-C ) :   1.2159
B( 26-C , 39-C ) :   1.5110 B( 26-C , 45-H ) :   1.0064 B( 27-C , 28-H ) :   1.0137
B( 27-C , 29-C ) :   1.6753 B( 27-C , 36-C ) :   1.2315 B( 29-C , 43-H ) :   0.9767
B( 30-C , 40-C ) :   0.9394 B( 31-N , 36-C ) :   1.1304 B( 31-N , 39-C ) :   1.3982
B( 32-C , 33-N ) :   1.5014 B( 32-C , 37-C ) :   1.4108 B( 32-C , 44-H ) :   0.9885
B( 33-N , 40-C ) :   1.3567 B( 34-C , 35-H ) :   0.9812 B( 34-C , 40-C ) :   1.4789
B( 34-C , 41-C ) :   1.4481 B( 37-C , 38-H ) :   0.9744 B( 37-C , 41-C ) :   1.4307
B( 39-C , 46-H ) :   0.9819 B( 41-C , 42-H ) :   0.9755 B( 47-N , 49-C ) :   1.3648
B( 47-N , 55-N ) :  -0.1177 B( 47-N , 71-C ) :   1.3642 B( 47-N , 77-N ) :  -0.1185
B( 48-N , 54-C ) :   1.4337 B( 48-N , 76-C ) :   1.4343 B( 49-C , 54-C ) :   1.2775
B( 49-C , 60-C ) :   0.9952 B( 49-C , 64-C ) :  -0.1071 B( 50-C , 53-C ) :   1.4212
B( 50-C , 63-C ) :   1.4039 B( 50-C , 69-H ) :   0.9795 B( 51-C , 52-H ) :   0.9818
B( 51-C , 53-C ) :   1.4624 B( 51-C , 60-C ) :   1.4767 B( 53-C , 67-H ) :   0.9659
B( 54-C , 64-C ) :   0.9530 B( 55-N , 60-C ) :   1.2772 B( 55-N , 63-C ) :   1.4488
B( 56-C , 57-N ) :   1.5033 B( 56-C , 61-C ) :   1.3978 B( 56-C , 68-H ) :   0.9829
B( 57-N , 64-C ) :   1.3218 B( 58-C , 59-H ) :   0.9781 B( 58-C , 64-C ) :   1.4822
B( 58-C , 65-C ) :   1.4312 B( 61-C , 62-H ) :   0.9685 B( 61-C , 65-C ) :   1.4448
B( 63-C , 70-H ) :   0.9768 B( 65-C , 66-H ) :   0.9717 B( 71-C , 76-C ) :   1.2767
B( 71-C , 82-C ) :   0.9951 B( 71-C , 86-C ) :  -0.1068 B( 72-C , 75-C ) :   1.4212
B( 72-C , 85-C ) :   1.4049 B( 72-C , 91-H ) :   0.9795 B( 73-C , 74-H ) :   0.9815
B( 73-C , 75-C ) :   1.4619 B( 73-C , 82-C ) :   1.4744 B( 75-C , 89-H ) :   0.9662
B( 76-C , 86-C ) :   0.9519 B( 77-N , 82-C ) :   1.2638 B( 77-N , 85-C ) :   1.4553
B( 78-C , 79-N ) :   1.5035 B( 78-C , 83-C ) :   1.3988 B( 78-C , 90-H ) :   0.9828
B( 79-N , 86-C ) :   1.3206 B( 80-C , 81-H ) :   0.9774 B( 80-C , 86-C ) :   1.4842
B( 80-C , 87-C ) :   1.4313 B( 83-C , 84-H ) :   0.9684 B( 83-C , 87-C ) :   1.4448
B( 85-C , 92-H ) :   0.9762 B( 87-C , 88-H ) :   0.9715

E(0)                                       ...  -3997.325189404
E(0)                                       ...  -3997.325189404
E(CORR)(strong-pairs)                      ...    -10.263509236
E(CORR)(weak-pairs)                        ...     -0.127437120
E(CORR)(corrected)                         ...    -10.390946356
E(TOT)                                     ...  -4007.716135760
E(CCSD(T))                                 ...  -4008.246306686
FINAL SINGLE POINT ENERGY     -4008.246306686296

DIPOLE MOMENT
-------------
                                X             Y             Z
Electronic contribution:      2.32599       0.25285      -9.11321
Nuclear contribution   :      0.00076       0.00434      -0.00007
                        -----------------------------------------
Total Dipole Moment    :      2.32675       0.25719      -9.11327
                        -----------------------------------------
Magnitude (a.u.)       :      9.40912
Magnitude (Debye)      :     23.91609

Rotational constants in cm-1:     0.002008     0.001057     0.001056
Rotational constants in MHz :    60.207288    31.684217    31.669831

                             ****ORCA TERMINATED NORMALLY****
TOTAL RUN TIME: 3 days 6 hours 51 minutes 39 seconds 255 msec
