                         Program Version 5.0.3 -  RELEASE  -
|  1> !STEOM-DLPNO-CCSD DEF2-SVP DEF2-SVP/C def2/J RIJCOSX TIGHTSCF CPCM(toluene) RI-SOMF(1X) ESD(FlUOR)
|  2>
|  3> %maxcore  120000
|  4>
|  5> %mdci
|  6> 	NRoots 5 #no of roots
|  7> 	IROOT 1
|  8> 	DOSOLV  TRUE
|  9> end
| 10>
| 11> %ESD
| 12> 	GSHESSIAN "Fluor_naphtalene.GS.hess"
| 13> 	ESHESSIAN "Fluor_naphtalene.ES.hess"
| 14> 	DOHT TRUE
| 15> 	LINES VOIGT
| 16> 	LINEW 75
| 17> 	INLINEW 200
| 18> END
| 19>
| 20> * xyz 0 1
| 21>   C   -8.96121784812031      0.24268337776474      0.00033489819780
| 22>   C   -7.59059951968750      0.24371545417717      0.00015198745293
| 23>   C   -6.86693343298993      1.46030211281662      0.00023475747764
| 24>   C   -7.58799559947894      2.69205204792658      0.00050997612007
| 25>   C   -9.00310055342497      2.65617792309838      0.00069280404132
| 26>   C   -9.67467975506609      1.46137108557408      0.00060814266859
| 27>   H   -4.90710891896316      0.55933209328366     -0.00016767341217
| 28>   H   -9.50425962457938     -0.69409088109167      0.00026687164944
| 29>   H   -7.04027568972576     -0.68980140749936     -0.00005544925225
| 30>   C   -5.45183741157070      1.49616229462644      0.00005614405431
| 31>   C   -6.86437066397562      3.90865807672096      0.00059715121121
| 32>   H   -9.54784882567221      3.59299899012176      0.00091076313657
| 33>   H   -10.75737868171900      1.44626581403603      0.00074783188745
| 34>   C   -5.49375285629476      3.90967522182525      0.00042517705822
| 35>   C   -4.78028626336214      2.69100004727155      0.00015218718405
| 36>   H   -7.41470937199301      4.84216327382740      0.00079951152285
| 37>   H   -4.95071130646203      4.84645090655905      0.00050815101568
| 38>   H   -3.69758703691443      2.70613312896136      0.00001676798628
| 39> *
| 40>
| 41>                          ****END OF INPUT****

CARTESIAN COORDINATES (ANGSTROEM)
---------------------------------
  C     -1.733740   -1.833496   -0.000042
  C     -0.363122   -1.832464   -0.000224
  C      0.360544   -0.615878   -0.000142
  C     -0.360518    0.615872    0.000134
  C     -1.775623    0.579998    0.000316
  C     -2.447202   -0.614809    0.000232
  H      2.320369   -1.516848   -0.000544
  H     -2.276782   -2.770271   -0.000110
  H      0.187202   -2.765981   -0.000432
  C      1.775640   -0.580018   -0.000320
  C      0.363107    1.832478    0.000221
  H     -2.320371    1.516819    0.000534
  H     -3.529901   -0.629914    0.000371
  C      1.733725    1.833495    0.000049
  C      2.447192    0.614820   -0.000224
  H     -0.187232    2.765983    0.000423
  H      2.276767    2.770271    0.000132
  H      3.529891    0.629953   -0.000360

 Total Charge           Charge          ....    0
 Multiplicity           Mult            ....    1
 Number of Electrons    NEL             ....   68
 Basis Dimension        Dim             ....  180

ORBITAL ENERGIES
----------------

  NO   OCC          E(Eh)            E(eV)
   0   2.0000     -11.245535      -306.0066
   1   2.0000     -11.244599      -305.9811
   2   2.0000     -11.239664      -305.8468
   3   2.0000     -11.239630      -305.8459
   4   2.0000     -11.239486      -305.8420
   5   2.0000     -11.239386      -305.8392
   6   2.0000     -11.238361      -305.8113
   7   2.0000     -11.238313      -305.8101
   8   2.0000     -11.237619      -305.7912
   9   2.0000     -11.237598      -305.7906
  10   2.0000      -1.170521       -31.8515
  11   2.0000      -1.103078       -30.0163
  12   2.0000      -1.042934       -28.3797
  13   2.0000      -1.000742       -27.2316
  14   2.0000      -0.973455       -26.4891
  15   2.0000      -0.848850       -23.0984
  16   2.0000      -0.832214       -22.6457
  17   2.0000      -0.808453       -21.9991
  18   2.0000      -0.701870       -19.0989
  19   2.0000      -0.701205       -19.0808
  20   2.0000      -0.681067       -18.5328
  21   2.0000      -0.620783       -16.8924
  22   2.0000      -0.616039       -16.7633
  23   2.0000      -0.589967       -16.0538
  24   2.0000      -0.585858       -15.9420
  25   2.0000      -0.564982       -15.3739
  26   2.0000      -0.538747       -14.6600
  27   2.0000      -0.526638       -14.3305
  28   2.0000      -0.492843       -13.4109
  29   2.0000      -0.479576       -13.0499
  30   2.0000      -0.452657       -12.3174
  31   2.0000      -0.390456       -10.6248
  32   2.0000      -0.323901        -8.8138
  33   2.0000      -0.292792        -7.9673
  34   0.0000       0.085667         2.3311
  35   0.0000       0.115479         3.1423
  36   0.0000       0.173849         4.7307
  37   0.0000       0.190391         5.1808
  38   0.0000       0.206907         5.6302

E(0)                                       ...   -383.078503564
E(0)                                       ...   -383.078503564
E(CORR)(strong-pairs)                      ...     -1.334589986
E(CORR)(weak-pairs)                        ...     -0.004788641
E(CORR)(corrected)                         ...     -1.339378626
E(TOT)                                     ...   -384.417882190

MULLIKEN ATOMIC CHARGES
-----------------------
   0 C :   -0.025833
   1 C :   -0.016124
   2 C :   -0.023151
   3 C :   -0.023162
   4 C :   -0.016834
   5 C :   -0.025501
   6 H :    0.021051
   7 H :    0.032659
   8 H :    0.020972
   9 C :   -0.016835
  10 C :   -0.016110
  11 H :    0.021049
  12 H :    0.032760
  13 C :   -0.025836
  14 C :   -0.025499
  15 H :    0.020973
  16 H :    0.032660
  17 H :    0.032760
Sum of atomic charges:    0.0000000

LOEWDIN ATOMIC CHARGES
----------------------
   0 C :   -0.028917
   1 C :   -0.016817
   2 C :   -0.026273
   3 C :   -0.026272
   4 C :   -0.016848
   5 C :   -0.029019
   6 H :    0.029207
   7 H :    0.029717
   8 H :    0.029221
   9 C :   -0.016845
  10 C :   -0.016814
  11 H :    0.029206
  12 H :    0.029724
  13 C :   -0.028917
  14 C :   -0.029017
  15 H :    0.029222
  16 H :    0.029717
  17 H :    0.029724

  Mayer bond orders larger than 0.100000
B(  0-C ,  1-C ) :   1.4285 B(  0-C ,  5-C ) :   1.1679 B(  0-C ,  7-H ) :   0.9480
B(  1-C ,  2-C ) :   1.1563 B(  1-C ,  8-H ) :   0.9527 B(  2-C ,  3-C ) :   1.1988
B(  2-C ,  9-C ) :   1.1561 B(  3-C ,  4-C ) :   1.1561 B(  3-C , 10-C ) :   1.1563
B(  4-C ,  5-C ) :   1.4283 B(  4-C , 11-H ) :   0.9527 B(  5-C , 12-H ) :   0.9479
B(  6-H ,  9-C ) :   0.9527 B(  9-C , 14-C ) :   1.4283 B( 10-C , 13-C ) :   1.4285
B( 10-C , 15-H ) :   0.9527 B( 13-C , 14-C ) :   1.1680 B( 13-C , 16-H ) :   0.9480
B( 14-C , 17-H ) :   0.9479

-----------------------------------------------------------------------------
         ABSORPTION SPECTRUM VIA TRANSITION ELECTRIC DIPOLE MOMENTS
-----------------------------------------------------------------------------
State   Energy  Wavelength   fosc         T2         TX        TY        TZ
        (cm-1)    (nm)                  (au**2)     (au)      (au)      (au)
-----------------------------------------------------------------------------
   1   33098.3    302.1   0.000051998   0.00052   0.01612   0.01475   0.00000
   2   42135.9    237.3   0.109886680   0.85856   0.46961   0.79876   0.00018
   3   52107.4    191.9   1.429784416   9.03330   2.59274   1.52019   0.00012
   4   54693.1    182.8   0.294494095   1.77264   0.67499   1.14762   0.00025
   5   56890.3    175.8   0.000000354   0.00000   0.00006   0.00143   0.00000

FINAL SINGLE POINT ENERGY      -384.267075407964

DIPOLE MOMENT
-------------
                                X             Y             Z
Electronic contribution:      0.00005       0.00000      -0.00001
Nuclear contribution   :     -0.00005       0.00001       0.00001
                        -----------------------------------------
Total Dipole Moment    :      0.00000       0.00001       0.00000
                        -----------------------------------------
Magnitude (a.u.)       :      0.00001
Magnitude (Debye)      :      0.00003

Rotational constants in cm-1:     0.104651     0.041365     0.029647
Rotational constants in MHz :  3137.370576  1240.091757   888.786035

                             ****ORCA TERMINATED NORMALLY****
TOTAL RUN TIME: 0 days 17 hours 49 minutes 33 seconds 319 msec
