                         Program Version 5.0.2 -  RELEASE  -
|  1> !UKS B3LYP DEF2-TZVP(-F) RIJCOSX TIGHTSCF CPCM(toluene) TIGHTOPT FREQ NEARIR
|  2>
|  3> %maxcore  20000
|  4> %PAL
|  5>    NPROCS 10
|  6> END
|  7>
|  8> %FREQ
|  9> 	XTBVPT2 FALSE
| 10> END
| 11>
| 12> # Naphtalene
| 13>
| 14> * xyz 0 1
| 15>  C                 -8.96362052    0.23923842    0.00026300
| 16>  C                 -7.59081952    0.23923842    0.00026300
| 17>  C                 -6.86888152    1.46435942    0.00026300
| 18>  C                 -7.58675152    2.68822542    0.00063300
| 19>  C                 -9.00816752    2.65885242    0.00078700
| 20>  C                 -9.67967252    1.46087742    0.00049700
| 21>  H                 -4.89980852    0.53939442    0.00002000
| 22>  H                 -9.52435152   -0.70710758    0.00018300
| 23>  H                 -7.02603052   -0.70508358    0.00003500
| 24>  C                 -5.44715452    1.49390242    0.00000000
| 25>  C                 -6.86400152    3.91295142    0.00074800
| 26>  H                 -9.55540852    3.61330842    0.00086900
| 27>  H                -10.77930952    1.43451042    0.00059900
| 28>  C                 -5.49114052    3.91301942    0.00047500
| 29>  C                 -4.77512852    2.69112742    0.00001600
| 30>  H                 -7.42845752    4.85749242    0.00100800
| 31>  H                 -4.93044852    4.85935042    0.00029700
| 32>  H                 -3.67550052    2.71759242   -0.00016600
| 33> *
| 34>
| 35>
| 36>
| 37>                          ****END OF INPUT****
 Total Charge           Charge          ....    0
 Multiplicity           Mult            ....    1
 Number of Electrons    NEL             ....   68
FINAL SINGLE POINT ENERGY      -385.775529166173
FINAL SINGLE POINT ENERGY      -385.777052858201
FINAL SINGLE POINT ENERGY      -385.777089522230
FINAL SINGLE POINT ENERGY      -385.777112197889
FINAL SINGLE POINT ENERGY      -385.777113304537
FINAL SINGLE POINT ENERGY      -385.777113659778
                    ***********************HURRAY********************

CARTESIAN COORDINATES (ANGSTROEM)
---------------------------------
  C     -8.963474    0.240944    0.000331
  C     -7.591932    0.242001    0.000152
  C     -6.866587    1.459759    0.000239
  C     -7.588373    2.692603    0.000517
  C     -9.005306    2.655897    0.000697
  C     -9.677347    1.460254    0.000605
  H     -4.903474    0.560084   -0.000151
  H     -9.505994   -0.696476    0.000262
  H     -7.042686   -0.692554   -0.000059
  C     -5.449653    1.496464    0.000058
  C     -6.863032    3.910363    0.000604
  H     -9.551488    3.592276    0.000907
  H    -10.760351    1.445876    0.000744
  C     -5.491486    3.911416    0.000423
  C     -4.777616    2.692108    0.000148
  H     -7.412280    4.844916    0.000815
  H     -4.948961    4.848832    0.000490
  H     -3.694612    2.706485    0.000009

 Multiplicity           Mult            ....    1
 Number of Electrons    NEL             ....   68
 Basis Dimension        Dim             ....  288

ORBITAL ENERGIES
----------------
                 SPIN UP ORBITALS
  NO   OCC          E(Eh)            E(eV)
   0   1.0000     -10.183547      -277.1084
   1   1.0000     -10.183153      -277.0977
   2   1.0000     -10.174184      -276.8536
   3   1.0000     -10.174150      -276.8527
   4   1.0000     -10.174090      -276.8511
   5   1.0000     -10.174086      -276.8509
   6   1.0000     -10.173493      -276.8348
   7   1.0000     -10.173485      -276.8346
   8   1.0000     -10.173121      -276.8247
   9   1.0000     -10.173115      -276.8245
  10   1.0000      -0.877319       -23.8731
  11   1.0000      -0.823945       -22.4207
  12   1.0000      -0.775497       -21.1024
  13   1.0000      -0.742797       -20.2125
  14   1.0000      -0.720933       -19.6176
  15   1.0000      -0.627095       -17.0641
  16   1.0000      -0.613336       -16.6897
  17   1.0000      -0.597574       -16.2608
  18   1.0000      -0.516746       -14.0614
  19   1.0000      -0.510486       -13.8910
  20   1.0000      -0.496502       -13.5105
  21   1.0000      -0.447917       -12.1884
  22   1.0000      -0.443757       -12.0752
  23   1.0000      -0.419699       -11.4206
  24   1.0000      -0.418740       -11.3945
  25   1.0000      -0.401481       -10.9249
  26   1.0000      -0.395899       -10.7729
  27   1.0000      -0.370499       -10.0818
  28   1.0000      -0.341222        -9.2851
  29   1.0000      -0.332944        -9.0599
  30   1.0000      -0.332513        -9.0481
  31   1.0000      -0.290693        -7.9102
  32   1.0000      -0.249596        -6.7919
  33   1.0000      -0.221955        -6.0397
  34   0.0000      -0.046463        -1.2643
  35   0.0000      -0.018826        -0.5123
  36   0.0000       0.015086         0.4105
  37   0.0000       0.056036         1.5248
  38   0.0000       0.068052         1.8518

                 SPIN DOWN ORBITALS
  NO   OCC          E(Eh)            E(eV)
   0   1.0000     -10.183547      -277.1084
   1   1.0000     -10.183153      -277.0977
   2   1.0000     -10.174184      -276.8536
   3   1.0000     -10.174150      -276.8527
   4   1.0000     -10.174090      -276.8511
   5   1.0000     -10.174086      -276.8509
   6   1.0000     -10.173493      -276.8348
   7   1.0000     -10.173485      -276.8346
   8   1.0000     -10.173121      -276.8247
   9   1.0000     -10.173115      -276.8245
  10   1.0000      -0.877319       -23.8731
  11   1.0000      -0.823945       -22.4207
  12   1.0000      -0.775497       -21.1024
  13   1.0000      -0.742797       -20.2125
  14   1.0000      -0.720933       -19.6176
  15   1.0000      -0.627095       -17.0641
  16   1.0000      -0.613336       -16.6897
  17   1.0000      -0.597574       -16.2608
  18   1.0000      -0.516746       -14.0614
  19   1.0000      -0.510486       -13.8910
  20   1.0000      -0.496502       -13.5105
  21   1.0000      -0.447917       -12.1884
  22   1.0000      -0.443757       -12.0752
  23   1.0000      -0.419699       -11.4206
  24   1.0000      -0.418740       -11.3945
  25   1.0000      -0.401481       -10.9249
  26   1.0000      -0.395899       -10.7729
  27   1.0000      -0.370499       -10.0818
  28   1.0000      -0.341222        -9.2851
  29   1.0000      -0.332944        -9.0599
  30   1.0000      -0.332513        -9.0481
  31   1.0000      -0.290693        -7.9102
  32   1.0000      -0.249596        -6.7919
  33   1.0000      -0.221955        -6.0397
  34   0.0000      -0.046463        -1.2643
  35   0.0000      -0.018826        -0.5123
  36   0.0000       0.015086         0.4105
  37   0.0000       0.056036         1.5248
  38   0.0000       0.068052         1.8518

MULLIKEN ATOMIC CHARGES AND SPIN POPULATIONS
--------------------------------------------
   0 C :   -0.072765    0.000000
   1 C :   -0.240561    0.000000
   2 C :    0.253026    0.000000
   3 C :    0.253052    0.000000
   4 C :   -0.239058    0.000000
   5 C :   -0.074106    0.000000
   6 H :    0.091633    0.000000
   7 H :    0.095558    0.000000
   8 H :    0.091157    0.000000
   9 C :   -0.239134    0.000000
  10 C :   -0.240749    0.000000
  11 H :    0.091628    0.000000
  12 H :    0.095226    0.000000
  13 C :   -0.072692    0.000000
  14 C :   -0.074120    0.000000
  15 H :    0.091130    0.000000
  16 H :    0.095549    0.000000
  17 H :    0.095226    0.000000
Sum of atomic charges         :    0.0000000

LOEWDIN ATOMIC CHARGES AND SPIN POPULATIONS
-------------------------------------------
   0 C :   -0.133263    0.000000
   1 C :   -0.097014    0.000000
   2 C :   -0.087648    0.000000
   3 C :   -0.087649    0.000000
   4 C :   -0.097059    0.000000
   5 C :   -0.133300    0.000000
   6 H :    0.138510    0.000000
   7 H :    0.135645    0.000000
   8 H :    0.138509    0.000000
   9 C :   -0.097059    0.000000
  10 C :   -0.097013    0.000000
  11 H :    0.138510    0.000000
  12 H :    0.135619    0.000000
  13 C :   -0.133262    0.000000
  14 C :   -0.133300    0.000000
  15 H :    0.138508    0.000000
  16 H :    0.135645    0.000000
  17 H :    0.135620    0.000000

  Mayer bond orders larger than 0.100000
B(  0-C ,  1-C ) :   1.5040 B(  0-C ,  5-C ) :   1.2561 B(  0-C ,  7-H ) :   0.9832
B(  1-C ,  2-C ) :   1.2289 B(  1-C ,  8-H ) :   0.9878 B(  2-C ,  3-C ) :   1.3658
B(  2-C ,  9-C ) :   1.2289 B(  3-C ,  4-C ) :   1.2288 B(  3-C , 10-C ) :   1.2288
B(  4-C ,  5-C ) :   1.5048 B(  4-C , 11-H ) :   0.9871 B(  5-C , 12-H ) :   0.9834
B(  6-H ,  9-C ) :   0.9871 B(  9-C , 14-C ) :   1.5048 B( 10-C , 13-C ) :   1.5039
B( 10-C , 15-H ) :   0.9879 B( 13-C , 14-C ) :   1.2561 B( 13-C , 16-H ) :   0.9832
B( 14-C , 17-H ) :   0.9834

FINAL SINGLE POINT ENERGY      -385.777113693138

DIPOLE MOMENT
-------------
                                X             Y             Z
Electronic contribution:      0.00000       0.00001       0.00000
Nuclear contribution   :      0.00000      -0.00001      -0.00000
                        -----------------------------------------
Total Dipole Moment    :      0.00000      -0.00000      -0.00000
                        -----------------------------------------
Magnitude (a.u.)       :      0.00000
Magnitude (Debye)      :      0.00001

VIBRATIONAL FREQUENCIES
-----------------------

Scaling factor for frequencies =  1.000000000  (already applied!)

   0:         0.00 cm**-1
   1:         0.00 cm**-1
   2:         0.00 cm**-1
   3:         0.00 cm**-1
   4:         0.00 cm**-1
   5:         0.00 cm**-1
   6:       172.60 cm**-1
   7:       186.43 cm**-1
   8:       365.82 cm**-1
   9:       396.42 cm**-1
  10:       481.23 cm**-1
  11:       487.62 cm**-1
  12:       519.79 cm**-1
  13:       519.80 cm**-1
  14:       633.12 cm**-1
  15:       636.70 cm**-1
  16:       727.46 cm**-1
  17:       773.19 cm**-1
  18:       789.47 cm**-1
  19:       797.41 cm**-1
  20:       810.61 cm**-1
  21:       848.57 cm**-1
  22:       902.10 cm**-1
  23:       946.98 cm**-1
  24:       955.38 cm**-1
  25:       961.75 cm**-1
  26:       967.81 cm**-1
  27:       973.11 cm**-1
  28:      1033.79 cm**-1
  29:      1043.71 cm**-1
  30:      1150.75 cm**-1
  31:      1168.17 cm**-1
  32:      1170.89 cm**-1
  33:      1182.59 cm**-1
  34:      1229.40 cm**-1
  35:      1275.16 cm**-1
  36:      1288.59 cm**-1
  37:      1390.10 cm**-1
  38:      1393.60 cm**-1
  39:      1423.23 cm**-1
  40:      1493.26 cm**-1
  41:      1493.49 cm**-1
  42:      1547.55 cm**-1
  43:      1609.72 cm**-1
  44:      1637.11 cm**-1
  45:      1665.41 cm**-1
  46:      3162.59 cm**-1
  47:      3163.99 cm**-1
  48:      3166.25 cm**-1
  49:      3168.87 cm**-1
  50:      3178.88 cm**-1
  51:      3179.82 cm**-1
  52:      3190.65 cm**-1
  53:      3191.55 cm**-1

IR SPECTRUM
-----------

 Mode   freq       eps      Int      T**2         TX        TY        TZ
       cm**-1   L/(mol*cm) km/mol    a.u.
----------------------------------------------------------------------------
  6:    172.60   0.000739    3.73  0.001335  (-0.000014  0.000011 -0.036542)
  7:    186.43   0.000000    0.00  0.000000  ( 0.000017 -0.000000  0.000436)
  8:    365.82   0.000514    2.60  0.000438  (-0.010585  0.018068  0.000003)
  9:    396.42   0.000000    0.00  0.000000  (-0.000001  0.000001  0.000001)
 10:    481.23   0.000000    0.00  0.000000  ( 0.000000  0.000000  0.000008)
 11:    487.62   0.006655   33.63  0.004259  ( 0.000032 -0.000041  0.065259)
 12:    519.79   0.000000    0.00  0.000000  ( 0.000000  0.000000 -0.000000)
 13:    519.80   0.000000    0.00  0.000000  (-0.000000  0.000000  0.000000)
 14:    633.12   0.000000    0.00  0.000000  ( 0.000025  0.000011 -0.000011)
 15:    636.70   0.001061    5.36  0.000520  (-0.019748 -0.011394  0.000001)
 16:    727.46   0.000000    0.00  0.000000  (-0.000001 -0.000000 -0.000001)
 17:    773.19   0.000000    0.00  0.000000  ( 0.000000  0.000000 -0.000000)
 18:    789.47   0.000000    0.00  0.000000  ( 0.000001  0.000000  0.000007)
 19:    797.41   0.032146  162.45  0.012580  (-0.000038  0.000044 -0.112161)
 20:    810.61   0.000035    0.17  0.000013  (-0.001822  0.003157  0.000017)
 21:    848.57   0.000000    0.00  0.000000  (-0.000010 -0.000003 -0.000254)
 22:    902.10   0.000000    0.00  0.000000  (-0.000001  0.000001 -0.000002)
 23:    946.98   0.000000    0.00  0.000000  (-0.000001  0.000000  0.000002)
 24:    955.38   0.000000    0.00  0.000000  (-0.000000 -0.000000 -0.000000)
 25:    961.75   0.000797    4.03  0.000259  ( 0.000014 -0.000031  0.016082)
 26:    967.81   0.000000    0.00  0.000000  (-0.000016 -0.000012  0.000194)
 27:    973.11   0.000000    0.00  0.000000  (-0.000000  0.000001  0.000001)
 28:   1033.79   0.002936   14.84  0.000886  (-0.025642 -0.015126  0.000001)
 29:   1043.71   0.000000    0.00  0.000000  ( 0.000006  0.000004 -0.000000)
 30:   1150.75   0.001306    6.60  0.000354  (-0.009464  0.016270  0.000002)
 31:   1168.17   0.000220    1.11  0.000059  ( 0.006451  0.004129 -0.000000)
 32:   1170.89   0.000000    0.00  0.000000  ( 0.000004  0.000003  0.000000)
 33:   1182.59   0.000000    0.00  0.000000  (-0.000000  0.000000  0.000000)
 34:   1229.40   0.000175    0.88  0.000044  (-0.005712 -0.003419  0.000000)
 35:   1275.16   0.000000    0.00  0.000000  ( 0.000000  0.000000  0.000000)
 36:   1288.59   0.001324    6.69  0.000321  (-0.009017  0.015467  0.000004)
 37:   1390.10   0.000222    1.12  0.000050  (-0.005978 -0.003757  0.000000)
 38:   1393.60   0.000000    0.00  0.000000  (-0.000002 -0.000001 -0.000000)
 39:   1423.23   0.001504    7.60  0.000330  ( 0.009120 -0.015701 -0.000004)
 40:   1493.26   0.000000    0.00  0.000000  ( 0.000001  0.000000 -0.000000)
 41:   1493.49   0.000000    0.00  0.000000  (-0.000000  0.000000  0.000000)
 42:   1547.55   0.002593   13.10  0.000523  (-0.019646 -0.011702  0.000001)
 43:   1609.72   0.000000    0.00  0.000000  ( 0.000001 -0.000001 -0.000000)
 44:   1637.11   0.000876    4.43  0.000167  ( 0.006391 -0.011232 -0.000003)
 45:   1665.41   0.000000    0.00  0.000000  ( 0.000001 -0.000001  0.000000)
 46:   3162.59   0.000000    0.00  0.000000  ( 0.000005 -0.000006 -0.000000)
 47:   3163.99   0.001155    5.84  0.000114  ( 0.005327 -0.009248 -0.000002)
 48:   3166.25   0.000147    0.74  0.000014  (-0.003280 -0.001929  0.000000)
 49:   3168.87   0.000000    0.00  0.000000  ( 0.000003  0.000001 -0.000000)
 50:   3178.88   0.000000    0.00  0.000000  ( 0.000002  0.000001 -0.000000)
 51:   3179.82   0.011655   58.90  0.001144  ( 0.017135 -0.029158 -0.000006)
 52:   3190.65   0.008402   42.46  0.000822  (-0.024702 -0.014545  0.000001)
 53:   3191.55   0.000000    0.00  0.000000  (-0.000015 -0.000006  0.000000)

--------------------------
THERMOCHEMISTRY AT 298.15K
--------------------------

Temperature         ... 298.15 K
Pressure            ... 1.00 atm
Total Mass          ... 128.17 AMU

Throughout the following assumptions are being made:
  (1) The electronic state is orbitally nondegenerate
  (2) There are no thermally accessible electronically excited states
  (3) Hindered rotations indicated by low frequency modes are not
      treated as such but are treated as vibrations and this may
      cause some error
  (4) All equations used are the standard statistical mechanics
      equations for an ideal gas
  (5) All vibrations are strictly harmonic

freq.     172.60  E(vib)   ...       0.38
freq.     186.43  E(vib)   ...       0.37
freq.     365.82  E(vib)   ...       0.22
freq.     396.42  E(vib)   ...       0.20
freq.     481.23  E(vib)   ...       0.15
freq.     487.62  E(vib)   ...       0.15
freq.     519.79  E(vib)   ...       0.13
freq.     519.80  E(vib)   ...       0.13
freq.     633.12  E(vib)   ...       0.09
freq.     636.70  E(vib)   ...       0.09
freq.     727.46  E(vib)   ...       0.06
freq.     773.19  E(vib)   ...       0.05
freq.     789.47  E(vib)   ...       0.05
freq.     797.41  E(vib)   ...       0.05
freq.     810.61  E(vib)   ...       0.05
freq.     848.57  E(vib)   ...       0.04
freq.     902.10  E(vib)   ...       0.03
freq.     946.98  E(vib)   ...       0.03
freq.     955.38  E(vib)   ...       0.03
freq.     961.75  E(vib)   ...       0.03
freq.     967.81  E(vib)   ...       0.03
freq.     973.11  E(vib)   ...       0.03
freq.    1033.79  E(vib)   ...       0.02
freq.    1043.71  E(vib)   ...       0.02
freq.    1150.75  E(vib)   ...       0.01
freq.    1168.17  E(vib)   ...       0.01
freq.    1170.89  E(vib)   ...       0.01
freq.    1182.59  E(vib)   ...       0.01
freq.    1229.40  E(vib)   ...       0.01
freq.    1275.16  E(vib)   ...       0.01
freq.    1288.59  E(vib)   ...       0.01
freq.    1390.10  E(vib)   ...       0.00
freq.    1393.60  E(vib)   ...       0.00
freq.    1423.23  E(vib)   ...       0.00
freq.    1493.26  E(vib)   ...       0.00
freq.    1493.49  E(vib)   ...       0.00
freq.    1547.55  E(vib)   ...       0.00
freq.    1609.72  E(vib)   ...       0.00
freq.    1637.11  E(vib)   ...       0.00
freq.    1665.41  E(vib)   ...       0.00
freq.    3162.59  E(vib)   ...       0.00
freq.    3163.99  E(vib)   ...       0.00
freq.    3166.25  E(vib)   ...       0.00
freq.    3168.87  E(vib)   ...       0.00
freq.    3178.88  E(vib)   ...       0.00
freq.    3179.82  E(vib)   ...       0.00
freq.    3190.65  E(vib)   ...       0.00
freq.    3191.55  E(vib)   ...       0.00

------------
INNER ENERGY
------------

The inner energy is: U= E(el) + E(ZPE) + E(vib) + E(rot) + E(trans)
    E(el)   - is the total energy from the electronic structure calculation
              = E(kin-el) + E(nuc-el) + E(el-el) + E(nuc-nuc)
    E(ZPE)  - the the zero temperature vibrational energy from the frequency calculation
    E(vib)  - the the finite temperature correction to E(ZPE) due to population
              of excited vibrational states
    E(rot)  - is the rotational thermal energy
    E(trans)- is the translational thermal energy

Summary of contributions to the inner energy U:
Electronic energy                ...   -385.77711368 Eh
Zero point energy                ...      0.14683350 Eh      92.14 kcal/mol
Thermal vibrational correction   ...      0.00400062 Eh       2.51 kcal/mol
Thermal rotational correction    ...      0.00141627 Eh       0.89 kcal/mol
Thermal translational correction ...      0.00141627 Eh       0.89 kcal/mol
-----------------------------------------------------------------------
Total thermal energy                   -385.62344701 Eh

Summary of corrections to the electronic energy:
(perhaps to be used in another calculation)
Total thermal correction                  0.00683316 Eh       4.29 kcal/mol
Non-thermal (ZPE) correction              0.14683350 Eh      92.14 kcal/mol
-----------------------------------------------------------------------
Total correction                          0.15366667 Eh      96.43 kcal/mol

--------
ENTHALPY
--------

The enthalpy is H = U + kB*T
                kB is Boltzmann's constant
Total free energy                 ...   -385.62344701 Eh
Thermal Enthalpy correction       ...      0.00094421 Eh       0.59 kcal/mol
-----------------------------------------------------------------------
Total Enthalpy                    ...   -385.62250280 Eh

Note: Rotational entropy computed according to Herzberg
Infrared and Raman Spectra, Chapter V,1, Van Nostrand Reinhold, 1945
Point Group:  C2h, Symmetry Number:   2
Rotational constants in cm-1:     0.104525     0.041262     0.029584

Vibrational entropy computed according to the QRRHO of S. Grimme
Chem.Eur.J. 2012 18 9955

-------
ENTROPY
-------

The entropy contributions are T*S = T*(S(el)+S(vib)+S(rot)+S(trans))
     S(el)   - electronic entropy
     S(vib)  - vibrational entropy
     S(rot)  - rotational entropy
     S(trans)- translational entropy
The entropies will be listed as multiplied by the temperature to get
units of energy

Electronic entropy                ...      0.00000000 Eh      0.00 kcal/mol
Vibrational entropy               ...      0.00602727 Eh      3.78 kcal/mol
Rotational entropy                ...      0.01308943 Eh      8.21 kcal/mol
Translational entropy             ...      0.01922279 Eh     12.06 kcal/mol
-----------------------------------------------------------------------
Final entropy term                ...      0.03833949 Eh     24.06 kcal/mol

In case the symmetry of your molecule has not been determined correctly
or in case you have a reason to use a different symmetry number we print
out the resulting rotational entropy values for sn=1,12 :
 --------------------------------------------------------
|  sn= 1 | S(rot)=       0.01374389 Eh      8.62 kcal/mol|
|  sn= 2 | S(rot)=       0.01308943 Eh      8.21 kcal/mol|
|  sn= 3 | S(rot)=       0.01270660 Eh      7.97 kcal/mol|
|  sn= 4 | S(rot)=       0.01243497 Eh      7.80 kcal/mol|
|  sn= 5 | S(rot)=       0.01222428 Eh      7.67 kcal/mol|
|  sn= 6 | S(rot)=       0.01205214 Eh      7.56 kcal/mol|
|  sn= 7 | S(rot)=       0.01190659 Eh      7.47 kcal/mol|
|  sn= 8 | S(rot)=       0.01178052 Eh      7.39 kcal/mol|
|  sn= 9 | S(rot)=       0.01166931 Eh      7.32 kcal/mol|
|  sn=10 | S(rot)=       0.01156983 Eh      7.26 kcal/mol|
|  sn=11 | S(rot)=       0.01147984 Eh      7.20 kcal/mol|
|  sn=12 | S(rot)=       0.01139768 Eh      7.15 kcal/mol|
 --------------------------------------------------------

-------------------
GIBBS FREE ENERGY
-------------------

The Gibbs free energy is G = H - T*S

                             ****ORCA TERMINATED NORMALLY****
TOTAL RUN TIME: 0 days 18 hours 21 minutes 12 seconds 945 msec
