                         Program Version 5.0.3 -  RELEASE  -
|  1> !B3LYP DEF2-TZVP DEF2-TZVP/C def2/J RIJCOSX TIGHTSCF CPCM(toluene) RI-SOMF(1X) ESD(PHOSP)
|  2> %maxcore  120000
|  3>
|  4> %TDDFT
|  5> 	NROOTS 6
|  6> 	TDA FALSE
|  7> 	IROOT 1
|  8> END
|  9>
| 10> %ESD
| 11> 	GSHESSIAN "Phos_dft_TZVP_naphtalene.GS.hess"
| 12> 	TSHESSIAN "Phos_dft_TZVP_naphtalene.TS.hess"
| 13> 	DOHT TRUE
| 14> 	DELE 22650.19
| 15> END
| 16>
| 17> * xyz 0 1
| 18>   C   -8.96121784812031      0.24268337776474      0.00033489819780
| 19>   C   -7.59059951968750      0.24371545417717      0.00015198745293
| 20>   C   -6.86693343298993      1.46030211281662      0.00023475747764
| 21>   C   -7.58799559947894      2.69205204792658      0.00050997612007
| 22>   C   -9.00310055342497      2.65617792309838      0.00069280404132
| 23>   C   -9.67467975506609      1.46137108557408      0.00060814266859
| 24>   H   -4.90710891896316      0.55933209328366     -0.00016767341217
| 25>   H   -9.50425962457938     -0.69409088109167      0.00026687164944
| 26>   H   -7.04027568972576     -0.68980140749936     -0.00005544925225
| 27>   C   -5.45183741157070      1.49616229462644      0.00005614405431
| 28>   C   -6.86437066397562      3.90865807672096      0.00059715121121
| 29>   H   -9.54784882567221      3.59299899012176      0.00091076313657
| 30>   H   -10.75737868171900      1.44626581403603      0.00074783188745
| 31>   C   -5.49375285629476      3.90967522182525      0.00042517705822
| 32>   C   -4.78028626336214      2.69100004727155      0.00015218718405
| 33>   H   -7.41470937199301      4.84216327382740      0.00079951152285
| 34>   H   -4.95071130646203      4.84645090655905      0.00050815101568
| 35>   H   -3.69758703691443      2.70613312896136      0.00001676798628
| 36> *
| 37>
| 38> $NEW_JOB
| 39>
| 40> !B3LYP DEF2-TZVP DEF2-TZVP/C def2/J RIJCOSX TIGHTSCF CPCM(toluene) RI-SOMF(1X) ESD(PHOSP)
| 41> %maxcore  120000
| 42>
| 43> %TDDFT
| 44> 	NROOTS 6
| 45> 	TDA FALSE
| 46> 	IROOT 2
| 47> END
| 48>
| 49> %ESD
| 50> 	GSHESSIAN "Phos_dft_TZVP_naphtalene.GS.hess"
| 51> 	TSHESSIAN "Phos_dft_TZVP_naphtalene.TS.hess"
| 52> 	DOHT TRUE
| 53> 	DELE 22650.19
| 54> END
| 55>
| 56> * xyz 0 1
| 57>   C   -8.96121784812031      0.24268337776474      0.00033489819780
| 58>   C   -7.59059951968750      0.24371545417717      0.00015198745293
| 59>   C   -6.86693343298993      1.46030211281662      0.00023475747764
| 60>   C   -7.58799559947894      2.69205204792658      0.00050997612007
| 61>   C   -9.00310055342497      2.65617792309838      0.00069280404132
| 62>   C   -9.67467975506609      1.46137108557408      0.00060814266859
| 63>   H   -4.90710891896316      0.55933209328366     -0.00016767341217
| 64>   H   -9.50425962457938     -0.69409088109167      0.00026687164944
| 65>   H   -7.04027568972576     -0.68980140749936     -0.00005544925225
| 66>   C   -5.45183741157070      1.49616229462644      0.00005614405431
| 67>   C   -6.86437066397562      3.90865807672096      0.00059715121121
| 68>   H   -9.54784882567221      3.59299899012176      0.00091076313657
| 69>   H   -10.75737868171900      1.44626581403603      0.00074783188745
| 70>   C   -5.49375285629476      3.90967522182525      0.00042517705822
| 71>   C   -4.78028626336214      2.69100004727155      0.00015218718405
| 72>   H   -7.41470937199301      4.84216327382740      0.00079951152285
| 73>   H   -4.95071130646203      4.84645090655905      0.00050815101568
| 74>   H   -3.69758703691443      2.70613312896136      0.00001676798628
| 75> *
| 76>
| 77> $NEW_JOB
| 78>
| 79> !B3LYP DEF2-TZVP DEF2-TZVP/C def2/J RIJCOSX TIGHTSCF CPCM(toluene) RI-SOMF(1X) ESD(PHOSP)
| 80> %maxcore  120000
| 81>
| 82> %TDDFT
| 83> 	NROOTS 6
| 84> 	TDA FALSE
| 85> 	IROOT 3
| 86> END
| 87>
| 88> %ESD
| 89> 	GSHESSIAN "Phos_dft_TZVP_naphtalene.GS.hess"
| 90> 	TSHESSIAN "Phos_dft_TZVP_naphtalene.TS.hess"
| 91> 	DOHT TRUE
| 92> 	DELE 22650.19
| 93> END
| 94>
| 95> * xyz 0 1
| 96>   C   -8.96121784812031      0.24268337776474      0.00033489819780
| 97>   C   -7.59059951968750      0.24371545417717      0.00015198745293
| 98>   C   -6.86693343298993      1.46030211281662      0.00023475747764
| 99>   C   -7.58799559947894      2.69205204792658      0.00050997612007
|100>   C   -9.00310055342497      2.65617792309838      0.00069280404132
|101>   C   -9.67467975506609      1.46137108557408      0.00060814266859
|102>   H   -4.90710891896316      0.55933209328366     -0.00016767341217
|103>   H   -9.50425962457938     -0.69409088109167      0.00026687164944
|104>   H   -7.04027568972576     -0.68980140749936     -0.00005544925225
|105>   C   -5.45183741157070      1.49616229462644      0.00005614405431
|106>   C   -6.86437066397562      3.90865807672096      0.00059715121121
|107>   H   -9.54784882567221      3.59299899012176      0.00091076313657
|108>   H   -10.75737868171900      1.44626581403603      0.00074783188745
|109>   C   -5.49375285629476      3.90967522182525      0.00042517705822
|110>   C   -4.78028626336214      2.69100004727155      0.00015218718405
|111>   H   -7.41470937199301      4.84216327382740      0.00079951152285
|112>   H   -4.95071130646203      4.84645090655905      0.00050815101568
|113>   H   -3.69758703691443      2.70613312896136      0.00001676798628
|114> *
|115>
|116>
|117>
|118>
|119>
|120>                          ****END OF INPUT****
 Total Charge           Charge          ....    0
 Multiplicity           Mult            ....    1
 Number of Electrons    NEL             ....   68
FINAL SINGLE POINT ENERGY      -385.627661429340
FINAL SINGLE POINT ENERGY      -385.622087487362

CARTESIAN COORDINATES (ANGSTROEM)
---------------------------------
  C     -1.733740   -1.833496   -0.000042
  C     -0.363122   -1.832464   -0.000224
  C      0.360544   -0.615878   -0.000142
  C     -0.360518    0.615872    0.000134
  C     -1.775623    0.579998    0.000316
  C     -2.447202   -0.614809    0.000232
  H      2.320369   -1.516848   -0.000544
  H     -2.276782   -2.770271   -0.000110
  H      0.187202   -2.765981   -0.000432
  C      1.775640   -0.580018   -0.000320
  C      0.363107    1.832478    0.000221
  H     -2.320371    1.516819    0.000534
  H     -3.529901   -0.629914    0.000371
  C      1.733725    1.833495    0.000049
  C      2.447192    0.614820   -0.000224
  H     -0.187232    2.765983    0.000423
  H      2.276767    2.770271    0.000132
  H      3.529891    0.629953   -0.000360

 Multiplicity           Mult            ....    1
 Number of Electrons    NEL             ....   68
 Basis Dimension        Dim             ....  358

ORBITAL ENERGIES
----------------

  NO   OCC          E(Eh)            E(eV)
   0   2.0000     -10.183226      -277.0997
   1   2.0000     -10.182821      -277.0887
   2   2.0000     -10.173992      -276.8484
   3   2.0000     -10.173950      -276.8473
   4   2.0000     -10.173864      -276.8449
   5   2.0000     -10.173860      -276.8448
   6   2.0000     -10.173315      -276.8300
   7   2.0000     -10.173312      -276.8299
   8   2.0000     -10.172970      -276.8206
   9   2.0000     -10.172967      -276.8205
  10   2.0000      -0.876988       -23.8641
  11   2.0000      -0.823361       -22.4048
  12   2.0000      -0.775094       -21.0914
  13   2.0000      -0.742051       -20.1922
  14   2.0000      -0.720191       -19.5974
  15   2.0000      -0.626357       -17.0441
  16   2.0000      -0.612547       -16.6682
  17   2.0000      -0.597032       -16.2461
  18   2.0000      -0.516099       -14.0438
  19   2.0000      -0.509671       -13.8689
  20   2.0000      -0.495744       -13.4899
  21   2.0000      -0.447360       -12.1733
  22   2.0000      -0.442813       -12.0496
  23   2.0000      -0.418547       -11.3892
  24   2.0000      -0.418093       -11.3769
  25   2.0000      -0.400622       -10.9015
  26   2.0000      -0.396892       -10.8000
  27   2.0000      -0.369518       -10.0551
  28   2.0000      -0.339940        -9.2502
  29   2.0000      -0.333478        -9.0744
  30   2.0000      -0.331478        -9.0200
  31   2.0000      -0.291361        -7.9283
  32   2.0000      -0.249958        -6.8017
  33   2.0000      -0.222225        -6.0471
  34   0.0000      -0.046354        -1.2614
  35   0.0000      -0.018662        -0.5078
  36   0.0000       0.015246         0.4149
  37   0.0000       0.056261         1.5309
  38   0.0000       0.067845         1.8462

MULLIKEN ATOMIC CHARGES
-----------------------
   0 C :   -0.118460
   1 C :   -0.192622
   2 C :    0.131611
   3 C :    0.131682
   4 C :   -0.191158
   5 C :   -0.119839
   6 H :    0.119253
   7 H :    0.126190
   8 H :    0.119071
   9 C :   -0.191087
  10 C :   -0.192607
  11 H :    0.119231
  12 H :    0.125939
  13 C :   -0.118521
  14 C :   -0.119862
  15 H :    0.119068
  16 H :    0.126171
  17 H :    0.125938
Sum of atomic charges:   -0.0000000

LOEWDIN ATOMIC CHARGES
----------------------
   0 C :   -0.143722
   1 C :   -0.104244
   2 C :   -0.095115
   3 C :   -0.095109
   4 C :   -0.104277
   5 C :   -0.143777
   6 H :    0.149500
   7 H :    0.146068
   8 H :    0.149505
   9 C :   -0.104273
  10 C :   -0.104242
  11 H :    0.149500
  12 H :    0.146054
  13 C :   -0.143724
  14 C :   -0.143772
  15 H :    0.149505
  16 H :    0.146069
  17 H :    0.146054

  Mayer bond orders larger than 0.100000
B(  0-C ,  1-C ) :   1.5307 B(  0-C ,  5-C ) :   1.2560 B(  0-C ,  7-H ) :   0.9750
B(  1-C ,  2-C ) :   1.2108 B(  1-C ,  8-H ) :   0.9812 B(  2-C ,  3-C ) :   1.2330
B(  2-C ,  9-C ) :   1.2106 B(  3-C ,  4-C ) :   1.2104 B(  3-C , 10-C ) :   1.2109
B(  4-C ,  5-C ) :   1.5309 B(  4-C , 11-H ) :   0.9807 B(  5-C , 12-H ) :   0.9752
B(  6-H ,  9-C ) :   0.9806 B(  9-C , 14-C ) :   1.5308 B( 10-C , 13-C ) :   1.5306
B( 10-C , 15-H ) :   0.9812 B( 13-C , 14-C ) :   1.2559 B( 13-C , 16-H ) :   0.9750
B( 14-C , 17-H ) :   0.9752

-----------------------------------------------------------------------------
         ABSORPTION SPECTRUM VIA TRANSITION ELECTRIC DIPOLE MOMENTS
-----------------------------------------------------------------------------
State   Energy    Wavelength  fosc         T2        TX        TY        TZ
        (cm-1)      (nm)                 (au**2)    (au)      (au)      (au)
-----------------------------------------------------------------------------
   1   34797.1    287.4   0.099755119   0.94377  -0.49051   0.83855   0.00019
   2   36020.5    277.6   0.000036634   0.00033  -0.01573  -0.00935   0.00000
   3   45016.7    222.1   1.598624829  11.69090   2.95258   1.72429  -0.00013
   4   45302.4    220.7   0.000000022   0.00000  -0.00035  -0.00020   0.00000
   5   48375.2    206.7   0.301967776   2.05501  -0.71781   1.24087   0.00027
   6   50009.5    200.0   0.000000003   0.00000  -0.00012  -0.00008   0.00000

FINAL SINGLE POINT ENERGY      -385.581097400225

DIPOLE MOMENT
-------------
                                X             Y             Z
Electronic contribution:      0.00005       0.00000      -0.00001
Nuclear contribution   :     -0.00005       0.00001       0.00001
                        -----------------------------------------
Total Dipole Moment    :      0.00000       0.00001       0.00000
                        -----------------------------------------
Magnitude (a.u.)       :      0.00001
Magnitude (Debye)      :      0.00004

Rotational constants in cm-1:     0.104651     0.041365     0.029647
Rotational constants in MHz :  3137.370576  1240.091757   888.786035

                             ****ORCA TERMINATED NORMALLY****
TOTAL RUN TIME: 0 days 0 hours 27 minutes 24 seconds 493 msec
