                         Program Version 5.0.3 -  RELEASE  -
|  1> !STEOM-DLPNO-CCSD DEF2-TZVP DEF2-TZVP/C def2/J RIJCOSX TIGHTSCF CPCM(toluene) RI-SOMF(1X) ESD(PHOSP)
|  2>
|  3> %maxcore  120000
|  4>
|  5> %mdci
|  6> 	NRoots 9 #no of roots
|  7> 	IROOT 1
|  8> 	DOSOC TRUE
|  9> 	DOSOLV  TRUE
| 10> end
| 11>
| 12> %ESD
| 13> 	GSHESSIAN "Phos_TZVP_naphtalene.GS.hess"
| 14> 	TSHESSIAN "Phos_TZVP_naphtalene.TS.hess"
| 15> 	DOHT TRUE
| 16> 	DELE 22650.19
| 17> END
| 18>
| 19> * xyz 0 1
| 20>   C   -8.96121784812031      0.24268337776474      0.00033489819780
| 21>   C   -7.59059951968750      0.24371545417717      0.00015198745293
| 22>   C   -6.86693343298993      1.46030211281662      0.00023475747764
| 23>   C   -7.58799559947894      2.69205204792658      0.00050997612007
| 24>   C   -9.00310055342497      2.65617792309838      0.00069280404132
| 25>   C   -9.67467975506609      1.46137108557408      0.00060814266859
| 26>   H   -4.90710891896316      0.55933209328366     -0.00016767341217
| 27>   H   -9.50425962457938     -0.69409088109167      0.00026687164944
| 28>   H   -7.04027568972576     -0.68980140749936     -0.00005544925225
| 29>   C   -5.45183741157070      1.49616229462644      0.00005614405431
| 30>   C   -6.86437066397562      3.90865807672096      0.00059715121121
| 31>   H   -9.54784882567221      3.59299899012176      0.00091076313657
| 32>   H   -10.75737868171900      1.44626581403603      0.00074783188745
| 33>   C   -5.49375285629476      3.90967522182525      0.00042517705822
| 34>   C   -4.78028626336214      2.69100004727155      0.00015218718405
| 35>   H   -7.41470937199301      4.84216327382740      0.00079951152285
| 36>   H   -4.95071130646203      4.84645090655905      0.00050815101568
| 37>   H   -3.69758703691443      2.70613312896136      0.00001676798628
| 38> *
| 39>
| 40> $NEW_JOB
| 41>
| 42> !STEOM-DLPNO-CCSD DEF2-TZVP DEF2-TZVP/C def2/J RIJCOSX TIGHTSCF CPCM(toluene) RI-SOMF(1X) ESD(PHOSP)
| 43>
| 44> %maxcore  120000
| 45>
| 46> %mdci
| 47> 	NRoots 9 #no of roots
| 48> 	IROOT 2
| 49> 	DOSOC TRUE
| 50> 	DOSOLV  TRUE
| 51> end
| 52>
| 53> %ESD
| 54> 	GSHESSIAN "Phos_TZVP_naphtalene.GS.hess"
| 55> 	TSHESSIAN "Phos_TZVP_naphtalene.TS.hess"
| 56> 	DOHT TRUE
| 57> 	DELE 22650.19
| 58> END
| 59>
| 60> * xyz 0 1
| 61>   C   -8.96121784812031      0.24268337776474      0.00033489819780
| 62>   C   -7.59059951968750      0.24371545417717      0.00015198745293
| 63>   C   -6.86693343298993      1.46030211281662      0.00023475747764
| 64>   C   -7.58799559947894      2.69205204792658      0.00050997612007
| 65>   C   -9.00310055342497      2.65617792309838      0.00069280404132
| 66>   C   -9.67467975506609      1.46137108557408      0.00060814266859
| 67>   H   -4.90710891896316      0.55933209328366     -0.00016767341217
| 68>   H   -9.50425962457938     -0.69409088109167      0.00026687164944
| 69>   H   -7.04027568972576     -0.68980140749936     -0.00005544925225
| 70>   C   -5.45183741157070      1.49616229462644      0.00005614405431
| 71>   C   -6.86437066397562      3.90865807672096      0.00059715121121
| 72>   H   -9.54784882567221      3.59299899012176      0.00091076313657
| 73>   H   -10.75737868171900      1.44626581403603      0.00074783188745
| 74>   C   -5.49375285629476      3.90967522182525      0.00042517705822
| 75>   C   -4.78028626336214      2.69100004727155      0.00015218718405
| 76>   H   -7.41470937199301      4.84216327382740      0.00079951152285
| 77>   H   -4.95071130646203      4.84645090655905      0.00050815101568
| 78>   H   -3.69758703691443      2.70613312896136      0.00001676798628
| 79> *
| 80>
| 81> $NEW_JOB
| 82>
| 83> !STEOM-DLPNO-CCSD DEF2-TZVP DEF2-TZVP/C def2/J RIJCOSX TIGHTSCF CPCM(toluene) RI-SOMF(1X) ESD(PHOSP)
| 84>
| 85> %maxcore  120000
| 86>
| 87> %mdci
| 88> 	NRoots 9 #no of roots
| 89> 	IROOT 3
| 90> 	DOSOC TRUE
| 91> 	DOSOLV  TRUE
| 92> end
| 93>
| 94> %ESD
| 95> 	GSHESSIAN "Phos_TZVP_naphtalene.GS.hess"
| 96> 	TSHESSIAN "Phos_TZVP_naphtalene.TS.hess"
| 97> 	DOHT TRUE
| 98> 	DELE 22650.19
| 99> END
|100>
|101> * xyz 0 1
|102>   C   -8.96121784812031      0.24268337776474      0.00033489819780
|103>   C   -7.59059951968750      0.24371545417717      0.00015198745293
|104>   C   -6.86693343298993      1.46030211281662      0.00023475747764
|105>   C   -7.58799559947894      2.69205204792658      0.00050997612007
|106>   C   -9.00310055342497      2.65617792309838      0.00069280404132
|107>   C   -9.67467975506609      1.46137108557408      0.00060814266859
|108>   H   -4.90710891896316      0.55933209328366     -0.00016767341217
|109>   H   -9.50425962457938     -0.69409088109167      0.00026687164944
|110>   H   -7.04027568972576     -0.68980140749936     -0.00005544925225
|111>   C   -5.45183741157070      1.49616229462644      0.00005614405431
|112>   C   -6.86437066397562      3.90865807672096      0.00059715121121
|113>   H   -9.54784882567221      3.59299899012176      0.00091076313657
|114>   H   -10.75737868171900      1.44626581403603      0.00074783188745
|115>   C   -5.49375285629476      3.90967522182525      0.00042517705822
|116>   C   -4.78028626336214      2.69100004727155      0.00015218718405
|117>   H   -7.41470937199301      4.84216327382740      0.00079951152285
|118>   H   -4.95071130646203      4.84645090655905      0.00050815101568
|119>   H   -3.69758703691443      2.70613312896136      0.00001676798628
|120> *
|121>
|122>
|123>
|124>
|125>
|126>                          ****END OF INPUT****
 Total Charge           Charge          ....    0
 Multiplicity           Mult            ....    1
 Number of Electrons    NEL             ....   68
E(0)                                       ...   -383.489122554
E(0)                                       ...   -383.489122554
E(CORR)(strong-pairs)                      ...     -1.563662767
E(CORR)(weak-pairs)                        ...     -0.007294169
E(CORR)(corrected)                         ...     -1.570956936
E(TOT)                                     ...   -385.060079491
FINAL SINGLE POINT ENERGY      -384.955355955909
FINAL SINGLE POINT ENERGY      -384.955355979863

CARTESIAN COORDINATES (ANGSTROEM)
---------------------------------
  C     -1.733740   -1.833496   -0.000042
  C     -0.363122   -1.832464   -0.000224
  C      0.360544   -0.615878   -0.000142
  C     -0.360518    0.615872    0.000134
  C     -1.775623    0.579998    0.000316
  C     -2.447202   -0.614809    0.000232
  H      2.320369   -1.516848   -0.000544
  H     -2.276782   -2.770271   -0.000110
  H      0.187202   -2.765981   -0.000432
  C      1.775640   -0.580018   -0.000320
  C      0.363107    1.832478    0.000221
  H     -2.320371    1.516819    0.000534
  H     -3.529901   -0.629914    0.000371
  C      1.733725    1.833495    0.000049
  C      2.447192    0.614820   -0.000224
  H     -0.187232    2.765983    0.000423
  H      2.276767    2.770271    0.000132
  H      3.529891    0.629953   -0.000360

 Multiplicity           Mult            ....    1
 Number of Electrons    NEL             ....   68
 Basis Dimension        Dim             ....  358

ORBITAL ENERGIES
----------------

  NO   OCC          E(Eh)            E(eV)
   0   2.0000     -11.243097      -305.9402
   1   2.0000     -11.242063      -305.9121
   2   2.0000     -11.234814      -305.7148
   3   2.0000     -11.234772      -305.7137
   4   2.0000     -11.234524      -305.7069
   5   2.0000     -11.234445      -305.7048
   6   2.0000     -11.233426      -305.6771
   7   2.0000     -11.233391      -305.6761
   8   2.0000     -11.232644      -305.6558
   9   2.0000     -11.232629      -305.6554
  10   2.0000      -1.178687       -32.0737
  11   2.0000      -1.111220       -30.2378
  12   2.0000      -1.051843       -28.6221
  13   2.0000      -1.009330       -27.4653
  14   2.0000      -0.982020       -26.7221
  15   2.0000      -0.854512       -23.2525
  16   2.0000      -0.836967       -22.7750
  17   2.0000      -0.811901       -22.0930
  18   2.0000      -0.705946       -19.2098
  19   2.0000      -0.699886       -19.0449
  20   2.0000      -0.678521       -18.4635
  21   2.0000      -0.622370       -16.9355
  22   2.0000      -0.611969       -16.6525
  23   2.0000      -0.585307       -15.9270
  24   2.0000      -0.583023       -15.8649
  25   2.0000      -0.563834       -15.3427
  26   2.0000      -0.537260       -14.6196
  27   2.0000      -0.523650       -14.2492
  28   2.0000      -0.488866       -13.3027
  29   2.0000      -0.476312       -12.9611
  30   2.0000      -0.451417       -12.2837
  31   2.0000      -0.388523       -10.5723
  32   2.0000      -0.321641        -8.7523
  33   2.0000      -0.291148        -7.9225
  34   0.0000       0.081838         2.2269
  35   0.0000       0.109202         2.9715
  36   0.0000       0.154399         4.2014
  37   0.0000       0.162718         4.4278
  38   0.0000       0.170848         4.6490

E(0)                                       ...   -383.489122569
E(0)                                       ...   -383.489122569
E(CORR)(strong-pairs)                      ...     -1.563662779
E(CORR)(weak-pairs)                        ...     -0.007294145
E(CORR)(corrected)                         ...     -1.570956924
E(TOT)                                     ...   -385.060079493

MULLIKEN ATOMIC CHARGES
-----------------------
   0 C :   -0.134844
   1 C :   -0.250523
   2 C :    0.185223
   3 C :    0.185645
   4 C :   -0.245023
   5 C :   -0.139212
   6 H :    0.143120
   7 H :    0.149342
   8 H :    0.142830
   9 C :   -0.244560
  10 C :   -0.250581
  11 H :    0.143093
  12 H :    0.149032
  13 C :   -0.135158
  14 C :   -0.139445
  15 H :    0.142779
  16 H :    0.149291
  17 H :    0.148993
Sum of atomic charges:    0.0000000

LOEWDIN ATOMIC CHARGES
----------------------
   0 C :   -0.147435
   1 C :   -0.108476
   2 C :   -0.095420
   3 C :   -0.095410
   4 C :   -0.108529
   5 C :   -0.147480
   6 H :    0.153560
   7 H :    0.150094
   8 H :    0.153596
   9 C :   -0.108524
  10 C :   -0.108473
  11 H :    0.153560
  12 H :    0.150081
  13 C :   -0.147441
  14 C :   -0.147474
  15 H :    0.153594
  16 H :    0.150096
  17 H :    0.150081

  Mayer bond orders larger than 0.100000
B(  0-C ,  1-C ) :   1.4555 B(  0-C ,  5-C ) :   1.1491 B(  0-C ,  7-H ) :   0.9312
B(  1-C ,  2-C ) :   1.1417 B(  1-C ,  8-H ) :   0.9330 B(  2-C ,  3-C ) :   1.2230
B(  2-C ,  9-C ) :   1.1428 B(  3-C ,  4-C ) :   1.1418 B(  3-C , 10-C ) :   1.1420
B(  4-C ,  5-C ) :   1.4559 B(  4-C , 11-H ) :   0.9318 B(  5-C , 12-H ) :   0.9314
B(  6-H ,  9-C ) :   0.9316 B(  9-C , 14-C ) :   1.4553 B( 10-C , 13-C ) :   1.4549
B( 10-C , 15-H ) :   0.9331 B( 13-C , 14-C ) :   1.1487 B( 13-C , 16-H ) :   0.9314
B( 14-C , 17-H ) :   0.9316

---------------------------------------------------------------------------------------------------------------------
                    SOC CORRECTED ABSORPTION SPECTRUM VIA TRANSITION ELECTRIC DIPOLE MOMENTS*
---------------------------------------------------------------------------------------------------------------------
   State   Energy  Wavelength    fosc         T2              TX                    TY                    TZ
           (cm-1)     (nm)                  (au**2)          (au)                  (au)                  (au)
---------------------------------------------------------------------------------------------------------------------
   0   1   22984.2    435.1   0.000000000   0.00000 ( -0.00000,  0.00000) ( -0.00000,  0.00000) ( -0.00000,  0.00000)
   0   2   22984.2    435.1   0.000000000   0.00000 ( -0.00000,  0.00001) ( -0.00000,  0.00000) (  0.00000, -0.00000)
   0   3   22984.2    435.1   0.000000000   0.00000 ( -0.00000, -0.00000) ( -0.00000, -0.00000) (  0.00000,  0.00000)
   0   4   33130.4    301.8   0.000000000   0.00000 ( -0.00000,  0.00000) (  0.00000, -0.00000) ( -0.00000,  0.00000)
   0   5   33130.4    301.8   0.000000000   0.00000 ( -0.00001,  0.00001) (  0.00001, -0.00001) (  0.00000, -0.00000)
   0   6   33130.4    301.8   0.000000000   0.00000 ( -0.00000,  0.00000) (  0.00000, -0.00000) (  0.00000, -0.00000)
   0   7   33203.0    301.2   0.000006903   0.00007 (  0.00035,  0.00749) (  0.00016,  0.00349) ( -0.00000, -0.00000)
   0   8   34629.1    288.8   0.000000000   0.00000 ( -0.00000,  0.00000) (  0.00000, -0.00000) ( -0.00000,  0.00000)
   0   9   34629.1    288.8   0.000000000   0.00000 (  0.00000, -0.00000) ( -0.00000,  0.00000) (  0.00000, -0.00000)
   0  10   34629.1    288.8   0.000000000   0.00000 (  0.00000,  0.00000) (  0.00000,  0.00000) ( -0.00000, -0.00000)
   0  11   36096.9    277.0   0.000000000   0.00000 ( -0.00001, -0.00003) ( -0.00001, -0.00002) ( -0.00000, -0.00000)
   0  12   36096.9    277.0   0.000000000   0.00000 (  0.00000, -0.00000) (  0.00000, -0.00000) ( -0.00000,  0.00000)
   0  13   36096.9    277.0   0.000000000   0.00000 (  0.00000,  0.00000) (  0.00000,  0.00000) (  0.00000,  0.00000)
   0  14   39284.5    254.6   0.000000000   0.00000 ( -0.00003,  0.00001) (  0.00005, -0.00002) (  0.00000, -0.00000)
   0  15   39284.5    254.6   0.000000000   0.00000 ( -0.00000,  0.00000) (  0.00000, -0.00000) (  0.00000, -0.00000)
   0  16   39284.5    254.6   0.000000000   0.00000 (  0.00000,  0.00000) ( -0.00000, -0.00000) ( -0.00000, -0.00000)
   0  17   40038.8    249.8   0.147889614   1.21600 ( -0.52978, -0.17288) (  0.90460,  0.29520) (  0.00021,  0.00007)
   0  18   48297.4    207.1   0.000006122   0.00004 ( -0.00555, -0.00001) ( -0.00331, -0.00001) ( -0.00000, -0.00000)
   0  19   50210.5    199.2   2.202350099  14.44000 ( -2.79438,  1.71458) ( -1.63766,  1.00484) (  0.00013, -0.00008)
   0  20   51420.1    194.5   0.000003819   0.00002 ( -0.00000, -0.00192) (  0.00000,  0.00456) (  0.00000,  0.00000)
   0  21   52613.8    190.1   0.480582555   3.00707 (  0.45950, -0.75153) ( -0.77917,  1.27438) ( -0.00018,  0.00030)
   0  22   53424.1    187.2   0.000000000   0.00000 (  0.00000, -0.00000) ( -0.00000,  0.00000) ( -0.00000,  0.00000)
   0  23   53424.1    187.2   0.000000000   0.00000 ( -0.00000,  0.00000) ( -0.00000,  0.00000) ( -0.00000,  0.00000)
   0  24   53424.1    187.2   0.000000000   0.00000 (  0.00000, -0.00000) ( -0.00000,  0.00000) (  0.00000, -0.00000)
   0  25   53455.8    187.1   0.000000000   0.00000 (  0.00000, -0.00000) (  0.00000, -0.00000) ( -0.00000,  0.00000)
   0  26   53455.8    187.1   0.000000000   0.00000 (  0.00000, -0.00000) (  0.00000, -0.00000) (  0.00000, -0.00000)
   0  27   53455.8    187.1   0.000000000   0.00000 ( -0.00000, -0.00000) ( -0.00000, -0.00000) ( -0.00000, -0.00000)
   0  28   54503.6    183.5   0.000000113   0.00000 ( -0.00000, -0.00041) (  0.00000,  0.00071) (  0.00000,  0.00000)
   0  29   61115.3    163.6   0.000000000   0.00000 (  0.00000, -0.00000) (  0.00000, -0.00000) (  0.00000, -0.00000)
   0  30   61115.3    163.6   0.000000000   0.00000 ( -0.00000, -0.00000) (  0.00001,  0.00000) (  0.00000,  0.00000)
   0  31   61115.3    163.6   0.000000001   0.00000 ( -0.00000,  0.00006) ( -0.00000,  0.00003) (  0.00000, -0.00000)
   0  32   61682.5    162.1   0.000002738   0.00001 ( -0.00125, -0.00072) (  0.00307,  0.00176) (  0.00009,  0.00005)
   0  33   63999.1    156.3   0.000000000   0.00000 (  0.00000, -0.00000) ( -0.00000,  0.00000) (  0.00000, -0.00000)
   0  34   63999.1    156.3   0.000000000   0.00000 ( -0.00000,  0.00000) (  0.00000, -0.00000) ( -0.00000,  0.00000)
   0  35   63999.1    156.3   0.000000000   0.00000 ( -0.00000, -0.00000) ( -0.00000, -0.00000) ( -0.00000, -0.00000)
   0  36   64682.9    154.6   0.000015208   0.00008 (  0.00333,  0.00554) (  0.00308,  0.00511) ( -0.00001, -0.00001)

FINAL SINGLE POINT ENERGY      -384.955355987919

DIPOLE MOMENT
-------------
                                X             Y             Z
Electronic contribution:      0.00006      -0.00000      -0.00001
Nuclear contribution   :     -0.00005       0.00001       0.00001
                        -----------------------------------------
Total Dipole Moment    :      0.00000       0.00001       0.00000
                        -----------------------------------------
Magnitude (a.u.)       :      0.00001
Magnitude (Debye)      :      0.00003

Rotational constants in cm-1:     0.104651     0.041365     0.029647
Rotational constants in MHz :  3137.370576  1240.091757   888.786035

                             ****ORCA TERMINATED NORMALLY****
TOTAL RUN TIME: 0 days 4 hours 24 minutes 56 seconds 6 msec
