                         Program Version 5.0.3 -  RELEASE  -
|  1> !STEOM-DLPNO-CCSD DEF2-SVP DEF2-SVP/C def2/J RIJCOSX TIGHTSCF CPCM(toluene) RI-SOMF(1X) ESD(PHOSP)
|  2>
|  3> %maxcore  120000
|  4>
|  5> %mdci
|  6> 	NRoots 6 #no of roots
|  7> 	IROOT 1
|  8> 	DOSOC TRUE
|  9> 	DOSOLV  TRUE
| 10> end
| 11>
| 12> %ESD
| 13> 	GSHESSIAN "Phos_naphtalene.GS.hess"
| 14> 	TSHESSIAN "Phos_naphtalene.TS.hess"
| 15> 	DOHT TRUE
| 16> 	DELE 22650.19
| 17> END
| 18>
| 19> * xyz 0 1
| 20>   C   -8.96121784812031      0.24268337776474      0.00033489819780
| 21>   C   -7.59059951968750      0.24371545417717      0.00015198745293
| 22>   C   -6.86693343298993      1.46030211281662      0.00023475747764
| 23>   C   -7.58799559947894      2.69205204792658      0.00050997612007
| 24>   C   -9.00310055342497      2.65617792309838      0.00069280404132
| 25>   C   -9.67467975506609      1.46137108557408      0.00060814266859
| 26>   H   -4.90710891896316      0.55933209328366     -0.00016767341217
| 27>   H   -9.50425962457938     -0.69409088109167      0.00026687164944
| 28>   H   -7.04027568972576     -0.68980140749936     -0.00005544925225
| 29>   C   -5.45183741157070      1.49616229462644      0.00005614405431
| 30>   C   -6.86437066397562      3.90865807672096      0.00059715121121
| 31>   H   -9.54784882567221      3.59299899012176      0.00091076313657
| 32>   H   -10.75737868171900      1.44626581403603      0.00074783188745
| 33>   C   -5.49375285629476      3.90967522182525      0.00042517705822
| 34>   C   -4.78028626336214      2.69100004727155      0.00015218718405
| 35>   H   -7.41470937199301      4.84216327382740      0.00079951152285
| 36>   H   -4.95071130646203      4.84645090655905      0.00050815101568
| 37>   H   -3.69758703691443      2.70613312896136      0.00001676798628
| 38> *
| 39>
| 40> $NEW_JOB
| 41>
| 42> !STEOM-DLPNO-CCSD DEF2-SVP DEF2-SVP/C def2/J RIJCOSX TIGHTSCF CPCM(toluene) RI-SOMF(1X) ESD(PHOSP)
| 43>
| 44> %maxcore  120000
| 45>
| 46> %mdci
| 47> 	NRoots 6 #no of roots
| 48> 	IROOT 2
| 49> 	DOSOC TRUE
| 50> 	DOSOLV  TRUE
| 51> end
| 52>
| 53> %ESD
| 54> 	GSHESSIAN "Phos_naphtalene.GS.hess"
| 55> 	TSHESSIAN "Phos_naphtalene.TS.hess"
| 56> 	DOHT TRUE
| 57> 	DELE 22650.19
| 58> END
| 59>
| 60> * xyz 0 1
| 61>   C   -8.96121784812031      0.24268337776474      0.00033489819780
| 62>   C   -7.59059951968750      0.24371545417717      0.00015198745293
| 63>   C   -6.86693343298993      1.46030211281662      0.00023475747764
| 64>   C   -7.58799559947894      2.69205204792658      0.00050997612007
| 65>   C   -9.00310055342497      2.65617792309838      0.00069280404132
| 66>   C   -9.67467975506609      1.46137108557408      0.00060814266859
| 67>   H   -4.90710891896316      0.55933209328366     -0.00016767341217
| 68>   H   -9.50425962457938     -0.69409088109167      0.00026687164944
| 69>   H   -7.04027568972576     -0.68980140749936     -0.00005544925225
| 70>   C   -5.45183741157070      1.49616229462644      0.00005614405431
| 71>   C   -6.86437066397562      3.90865807672096      0.00059715121121
| 72>   H   -9.54784882567221      3.59299899012176      0.00091076313657
| 73>   H   -10.75737868171900      1.44626581403603      0.00074783188745
| 74>   C   -5.49375285629476      3.90967522182525      0.00042517705822
| 75>   C   -4.78028626336214      2.69100004727155      0.00015218718405
| 76>   H   -7.41470937199301      4.84216327382740      0.00079951152285
| 77>   H   -4.95071130646203      4.84645090655905      0.00050815101568
| 78>   H   -3.69758703691443      2.70613312896136      0.00001676798628
| 79> *
| 80>
| 81> $NEW_JOB
| 82>
| 83> !STEOM-DLPNO-CCSD DEF2-SVP DEF2-SVP/C def2/J RIJCOSX TIGHTSCF CPCM(toluene) RI-SOMF(1X) ESD(PHOSP)
| 84>
| 85> %maxcore  120000
| 86>
| 87> %mdci
| 88> 	NRoots 6 #no of roots
| 89> 	IROOT 3
| 90> 	DOSOC TRUE
| 91> 	DOSOLV  TRUE
| 92> end
| 93>
| 94> %ESD
| 95> 	GSHESSIAN "Phos_naphtalene.GS.hess"
| 96> 	TSHESSIAN "Phos_naphtalene.TS.hess"
| 97> 	DOHT TRUE
| 98> 	DELE 22650.19
| 99> END
|100>
|101> * xyz 0 1
|102>   C   -8.96121784812031      0.24268337776474      0.00033489819780
|103>   C   -7.59059951968750      0.24371545417717      0.00015198745293
|104>   C   -6.86693343298993      1.46030211281662      0.00023475747764
|105>   C   -7.58799559947894      2.69205204792658      0.00050997612007
|106>   C   -9.00310055342497      2.65617792309838      0.00069280404132
|107>   C   -9.67467975506609      1.46137108557408      0.00060814266859
|108>   H   -4.90710891896316      0.55933209328366     -0.00016767341217
|109>   H   -9.50425962457938     -0.69409088109167      0.00026687164944
|110>   H   -7.04027568972576     -0.68980140749936     -0.00005544925225
|111>   C   -5.45183741157070      1.49616229462644      0.00005614405431
|112>   C   -6.86437066397562      3.90865807672096      0.00059715121121
|113>   H   -9.54784882567221      3.59299899012176      0.00091076313657
|114>   H   -10.75737868171900      1.44626581403603      0.00074783188745
|115>   C   -5.49375285629476      3.90967522182525      0.00042517705822
|116>   C   -4.78028626336214      2.69100004727155      0.00015218718405
|117>   H   -7.41470937199301      4.84216327382740      0.00079951152285
|118>   H   -4.95071130646203      4.84645090655905      0.00050815101568
|119>   H   -3.69758703691443      2.70613312896136      0.00001676798628
|120> *
|121>
|122>
|123>
|124>
|125>
|126>                          ****END OF INPUT****
 Total Charge           Charge          ....    0
 Multiplicity           Mult            ....    1
 Number of Electrons    NEL             ....   68
E(0)                                       ...   -383.078503564
E(0)                                       ...   -383.078503564
E(CORR)(strong-pairs)                      ...     -1.334589986
E(CORR)(weak-pairs)                        ...     -0.004788641
E(CORR)(corrected)                         ...     -1.339378626
E(TOT)                                     ...   -384.417882190
FINAL SINGLE POINT ENERGY      -384.309940332755
FINAL SINGLE POINT ENERGY      -384.310514513509

CARTESIAN COORDINATES (ANGSTROEM)
---------------------------------
  C     -1.733740   -1.833496   -0.000042
  C     -0.363122   -1.832464   -0.000224
  C      0.360544   -0.615878   -0.000142
  C     -0.360518    0.615872    0.000134
  C     -1.775623    0.579998    0.000316
  C     -2.447202   -0.614809    0.000232
  H      2.320369   -1.516848   -0.000544
  H     -2.276782   -2.770271   -0.000110
  H      0.187202   -2.765981   -0.000432
  C      1.775640   -0.580018   -0.000320
  C      0.363107    1.832478    0.000221
  H     -2.320371    1.516819    0.000534
  H     -3.529901   -0.629914    0.000371
  C      1.733725    1.833495    0.000049
  C      2.447192    0.614820   -0.000224
  H     -0.187232    2.765983    0.000423
  H      2.276767    2.770271    0.000132
  H      3.529891    0.629953   -0.000360

 Multiplicity           Mult            ....    1
 Number of Electrons    NEL             ....   68
 Basis Dimension        Dim             ....  180

ORBITAL ENERGIES
----------------

  NO   OCC          E(Eh)            E(eV)
   0   2.0000     -11.245536      -306.0066
   1   2.0000     -11.244601      -305.9811
   2   2.0000     -11.239664      -305.8468
   3   2.0000     -11.239630      -305.8459
   4   2.0000     -11.239486      -305.8420
   5   2.0000     -11.239386      -305.8392
   6   2.0000     -11.238360      -305.8113
   7   2.0000     -11.238313      -305.8100
   8   2.0000     -11.237619      -305.7911
   9   2.0000     -11.237597      -305.7906
  10   2.0000      -1.170521       -31.8515
  11   2.0000      -1.103078       -30.0163
  12   2.0000      -1.042934       -28.3797
  13   2.0000      -1.000742       -27.2316
  14   2.0000      -0.973455       -26.4891
  15   2.0000      -0.848850       -23.0984
  16   2.0000      -0.832214       -22.6457
  17   2.0000      -0.808453       -21.9991
  18   2.0000      -0.701870       -19.0989
  19   2.0000      -0.701205       -19.0808
  20   2.0000      -0.681067       -18.5328
  21   2.0000      -0.620783       -16.8924
  22   2.0000      -0.616039       -16.7633
  23   2.0000      -0.589967       -16.0538
  24   2.0000      -0.585859       -15.9420
  25   2.0000      -0.564982       -15.3739
  26   2.0000      -0.538747       -14.6601
  27   2.0000      -0.526637       -14.3305
  28   2.0000      -0.492843       -13.4109
  29   2.0000      -0.479576       -13.0499
  30   2.0000      -0.452657       -12.3174
  31   2.0000      -0.390456       -10.6248
  32   2.0000      -0.323901        -8.8138
  33   2.0000      -0.292792        -7.9673
  34   0.0000       0.085667         2.3311
  35   0.0000       0.115479         3.1423
  36   0.0000       0.173849         4.7307
  37   0.0000       0.190391         5.1808
  38   0.0000       0.206907         5.6302

E(0)                                       ...   -383.078503571
E(0)                                       ...   -383.078503571
E(CORR)(strong-pairs)                      ...     -1.334589992
E(CORR)(weak-pairs)                        ...     -0.004788639
E(CORR)(corrected)                         ...     -1.339378631
E(TOT)                                     ...   -384.417882202

MULLIKEN ATOMIC CHARGES
-----------------------
   0 C :   -0.025833
   1 C :   -0.016123
   2 C :   -0.023151
   3 C :   -0.023163
   4 C :   -0.016834
   5 C :   -0.025501
   6 H :    0.021051
   7 H :    0.032659
   8 H :    0.020972
   9 C :   -0.016835
  10 C :   -0.016110
  11 H :    0.021049
  12 H :    0.032760
  13 C :   -0.025836
  14 C :   -0.025499
  15 H :    0.020973
  16 H :    0.032660
  17 H :    0.032760
Sum of atomic charges:   -0.0000000

LOEWDIN ATOMIC CHARGES
----------------------
   0 C :   -0.028917
   1 C :   -0.016817
   2 C :   -0.026273
   3 C :   -0.026271
   4 C :   -0.016848
   5 C :   -0.029019
   6 H :    0.029207
   7 H :    0.029717
   8 H :    0.029221
   9 C :   -0.016845
  10 C :   -0.016814
  11 H :    0.029206
  12 H :    0.029724
  13 C :   -0.028917
  14 C :   -0.029017
  15 H :    0.029222
  16 H :    0.029717
  17 H :    0.029724

  Mayer bond orders larger than 0.100000
B(  0-C ,  1-C ) :   1.4285 B(  0-C ,  5-C ) :   1.1679 B(  0-C ,  7-H ) :   0.9480
B(  1-C ,  2-C ) :   1.1563 B(  1-C ,  8-H ) :   0.9527 B(  2-C ,  3-C ) :   1.1988
B(  2-C ,  9-C ) :   1.1561 B(  3-C ,  4-C ) :   1.1561 B(  3-C , 10-C ) :   1.1563
B(  4-C ,  5-C ) :   1.4283 B(  4-C , 11-H ) :   0.9527 B(  5-C , 12-H ) :   0.9479
B(  6-H ,  9-C ) :   0.9527 B(  9-C , 14-C ) :   1.4283 B( 10-C , 13-C ) :   1.4285
B( 10-C , 15-H ) :   0.9527 B( 13-C , 14-C ) :   1.1680 B( 13-C , 16-H ) :   0.9480
B( 14-C , 17-H ) :   0.9479

---------------------------------------------------------------------------------------------------------------------
                    SOC CORRECTED ABSORPTION SPECTRUM VIA TRANSITION ELECTRIC DIPOLE MOMENTS*
---------------------------------------------------------------------------------------------------------------------
   State   Energy  Wavelength    fosc         T2              TX                    TY                    TZ
           (cm-1)     (nm)                  (au**2)          (au)                  (au)                  (au)
---------------------------------------------------------------------------------------------------------------------
   0   1   23567.8    424.3   0.000000097   0.00000 (  0.00108,  0.00042) ( -0.00012, -0.00005) (  0.00002,  0.00001)
   0   2   23567.8    424.3   0.000000001   0.00000 ( -0.00002,  0.00011) (  0.00000, -0.00002) ( -0.00000,  0.00000)
   0   3   23567.8    424.3   0.000000020   0.00000 (  0.00051,  0.00009) ( -0.00011, -0.00002) (  0.00001,  0.00000)
   0   4   29894.6    334.5   0.005511079   0.06069 (  0.14436, -0.13438) (  0.10803, -0.10056) (  0.00238, -0.00222)
   0   5   34303.9    291.5   0.000000000   0.00000 ( -0.00003, -0.00005) (  0.00001,  0.00003) ( -0.00000, -0.00000)
   0   6   34303.9    291.5   0.000000010   0.00000 (  0.00021, -0.00010) ( -0.00019,  0.00009) (  0.00001, -0.00000)
   0   7   34303.9    291.5   0.000000092   0.00000 (  0.00045,  0.00040) ( -0.00054, -0.00048) (  0.00002,  0.00002)
   0   8   34492.6    289.9   0.000000005   0.00000 (  0.00010,  0.00014) ( -0.00007, -0.00010) (  0.00000,  0.00001)
   0   9   34492.6    289.9   0.000000017   0.00000 ( -0.00025,  0.00018) (  0.00021, -0.00015) ( -0.00001,  0.00001)
   0  10   34492.6    289.9   0.000000111   0.00000 ( -0.00048,  0.00051) (  0.00052, -0.00055) ( -0.00002,  0.00002)
   0  11   35325.2    283.1   0.000000000   0.00000 ( -0.00002,  0.00001) (  0.00004, -0.00001) (  0.00000, -0.00000)
   0  12   35325.2    283.1   0.000000001   0.00000 ( -0.00001, -0.00002) (  0.00004,  0.00007) ( -0.00000, -0.00000)
   0  13   35325.2    283.1   0.000000092   0.00000 (  0.00005,  0.00029) ( -0.00015, -0.00086) (  0.00000,  0.00002)
   0  14   41752.2    239.5   0.000000007   0.00000 (  0.00011,  0.00014) ( -0.00010, -0.00012) (  0.00000,  0.00000)
   0  15   41752.2    239.5   0.000000008   0.00000 ( -0.00006,  0.00016) (  0.00006, -0.00017) ( -0.00000,  0.00001)
   0  16   41752.2    239.5   0.000000103   0.00000 ( -0.00062,  0.00028) (  0.00054, -0.00024) ( -0.00002,  0.00001)
   0  17   48367.9    206.7   0.014145312   0.09628 (  0.04189,  0.05473) (  0.17980,  0.23495) (  0.03845,  0.05024)
   0  18   53884.6    185.6   0.046029781   0.28122 ( -0.09076, -0.42937) ( -0.06156, -0.29120) ( -0.00126, -0.00594)
   0  19   56060.6    178.4   0.000000073   0.00000 (  0.00009, -0.00024) (  0.00020, -0.00056) ( -0.00001,  0.00003)
   0  20   56060.6    178.4   0.000000005   0.00000 ( -0.00001, -0.00000) ( -0.00017, -0.00005) (  0.00000,  0.00000)
   0  21   56060.6    178.4   0.000000019   0.00000 ( -0.00002, -0.00019) (  0.00002,  0.00027) ( -0.00000, -0.00001)
   0  22   57118.3    175.1   0.111937964   0.64518 ( -0.18578,  0.61422) ( -0.13978,  0.46216) (  0.00471, -0.01557)
   0  23   57547.9    173.8   0.057331440   0.32797 (  0.09253, -0.34171) (  0.11725, -0.43299) ( -0.00985,  0.03638)
   0  24   58075.9    172.2   0.020129366   0.11411 ( -0.00830,  0.04049) ( -0.06635,  0.32390) (  0.01114, -0.05438)

FINAL SINGLE POINT ENERGY      -384.310499497833

DIPOLE MOMENT
-------------
                                X             Y             Z
Electronic contribution:      0.00005       0.00000      -0.00001
Nuclear contribution   :     -0.00005       0.00001       0.00001
                        -----------------------------------------
Total Dipole Moment    :      0.00000       0.00001       0.00000
                        -----------------------------------------
Magnitude (a.u.)       :      0.00001
Magnitude (Debye)      :      0.00003

Rotational constants in cm-1:     0.104651     0.041365     0.029647
Rotational constants in MHz :  3137.370576  1240.091757   888.786035

                             ****ORCA TERMINATED NORMALLY****
TOTAL RUN TIME: 0 days 0 hours 52 minutes 54 seconds 921 msec
