                         Program Version 5.0.3 -  RELEASE  -
|  1> !B3LYP DEF2-SVP DEF2-SVP/C def2/J RIJCOSX TIGHTSCF CPCM(toluene) RI-SOMF(1X) ESD(PHOSP)
|  2>
|  3> %maxcore  120000
|  4>
|  5> %TDDFT
|  6> 	NROOTS 6
|  7> 	TDA FALSE
|  8> 	IROOT 1
|  9> END
| 10>
| 11> %ESD
| 12> 	GSHESSIAN "Phos_dft_naphtalene.GS.hess"
| 13> 	TSHESSIAN "Phos_dft_naphtalene.TS.hess"
| 14> 	DOHT TRUE
| 15> 	DELE 22650.19
| 16> END
| 17>
| 18> * xyz 0 1
| 19>   C   -8.96121784812031      0.24268337776474      0.00033489819780
| 20>   C   -7.59059951968750      0.24371545417717      0.00015198745293
| 21>   C   -6.86693343298993      1.46030211281662      0.00023475747764
| 22>   C   -7.58799559947894      2.69205204792658      0.00050997612007
| 23>   C   -9.00310055342497      2.65617792309838      0.00069280404132
| 24>   C   -9.67467975506609      1.46137108557408      0.00060814266859
| 25>   H   -4.90710891896316      0.55933209328366     -0.00016767341217
| 26>   H   -9.50425962457938     -0.69409088109167      0.00026687164944
| 27>   H   -7.04027568972576     -0.68980140749936     -0.00005544925225
| 28>   C   -5.45183741157070      1.49616229462644      0.00005614405431
| 29>   C   -6.86437066397562      3.90865807672096      0.00059715121121
| 30>   H   -9.54784882567221      3.59299899012176      0.00091076313657
| 31>   H   -10.75737868171900      1.44626581403603      0.00074783188745
| 32>   C   -5.49375285629476      3.90967522182525      0.00042517705822
| 33>   C   -4.78028626336214      2.69100004727155      0.00015218718405
| 34>   H   -7.41470937199301      4.84216327382740      0.00079951152285
| 35>   H   -4.95071130646203      4.84645090655905      0.00050815101568
| 36>   H   -3.69758703691443      2.70613312896136      0.00001676798628
| 37> *
| 38>
| 39> $NEW_JOB
| 40>
| 41> !B3LYP DEF2-SVP DEF2-SVP/C def2/J RIJCOSX TIGHTSCF CPCM(toluene) RI-SOMF(1X) ESD(PHOSP)
| 42>
| 43> %maxcore  120000
| 44>
| 45> %TDDFT
| 46> 	NROOTS 6
| 47> 	TDA FALSE
| 48> 	IROOT 2
| 49> END
| 50>
| 51> %ESD
| 52> 	GSHESSIAN "Phos_dft_naphtalene.GS.hess"
| 53> 	TSHESSIAN "Phos_dft_naphtalene.TS.hess"
| 54> 	DOHT TRUE
| 55> 	DELE 22650.19
| 56> END
| 57>
| 58> * xyz 0 1
| 59>   C   -8.96121784812031      0.24268337776474      0.00033489819780
| 60>   C   -7.59059951968750      0.24371545417717      0.00015198745293
| 61>   C   -6.86693343298993      1.46030211281662      0.00023475747764
| 62>   C   -7.58799559947894      2.69205204792658      0.00050997612007
| 63>   C   -9.00310055342497      2.65617792309838      0.00069280404132
| 64>   C   -9.67467975506609      1.46137108557408      0.00060814266859
| 65>   H   -4.90710891896316      0.55933209328366     -0.00016767341217
| 66>   H   -9.50425962457938     -0.69409088109167      0.00026687164944
| 67>   H   -7.04027568972576     -0.68980140749936     -0.00005544925225
| 68>   C   -5.45183741157070      1.49616229462644      0.00005614405431
| 69>   C   -6.86437066397562      3.90865807672096      0.00059715121121
| 70>   H   -9.54784882567221      3.59299899012176      0.00091076313657
| 71>   H   -10.75737868171900      1.44626581403603      0.00074783188745
| 72>   C   -5.49375285629476      3.90967522182525      0.00042517705822
| 73>   C   -4.78028626336214      2.69100004727155      0.00015218718405
| 74>   H   -7.41470937199301      4.84216327382740      0.00079951152285
| 75>   H   -4.95071130646203      4.84645090655905      0.00050815101568
| 76>   H   -3.69758703691443      2.70613312896136      0.00001676798628
| 77> *
| 78>
| 79> $NEW_JOB
| 80>
| 81> !B3LYP DEF2-SVP DEF2-SVP/C def2/J RIJCOSX TIGHTSCF CPCM(toluene) RI-SOMF(1X) ESD(PHOSP)
| 82>
| 83> %maxcore  120000
| 84>
| 85> %TDDFT
| 86> 	NROOTS 6
| 87> 	TDA FALSE
| 88> 	IROOT 3
| 89> END
| 90>
| 91> %ESD
| 92> 	GSHESSIAN "Phos_dft_naphtalene.GS.hess"
| 93> 	TSHESSIAN "Phos_dft_naphtalene.TS.hess"
| 94> 	DOHT TRUE
| 95> 	DELE 22650.19
| 96> END
| 97>
| 98> * xyz 0 1
| 99>   C   -8.96121784812031      0.24268337776474      0.00033489819780
|100>   C   -7.59059951968750      0.24371545417717      0.00015198745293
|101>   C   -6.86693343298993      1.46030211281662      0.00023475747764
|102>   C   -7.58799559947894      2.69205204792658      0.00050997612007
|103>   C   -9.00310055342497      2.65617792309838      0.00069280404132
|104>   C   -9.67467975506609      1.46137108557408      0.00060814266859
|105>   H   -4.90710891896316      0.55933209328366     -0.00016767341217
|106>   H   -9.50425962457938     -0.69409088109167      0.00026687164944
|107>   H   -7.04027568972576     -0.68980140749936     -0.00005544925225
|108>   C   -5.45183741157070      1.49616229462644      0.00005614405431
|109>   C   -6.86437066397562      3.90865807672096      0.00059715121121
|110>   H   -9.54784882567221      3.59299899012176      0.00091076313657
|111>   H   -10.75737868171900      1.44626581403603      0.00074783188745
|112>   C   -5.49375285629476      3.90967522182525      0.00042517705822
|113>   C   -4.78028626336214      2.69100004727155      0.00015218718405
|114>   H   -7.41470937199301      4.84216327382740      0.00079951152285
|115>   H   -4.95071130646203      4.84645090655905      0.00050815101568
|116>   H   -3.69758703691443      2.70613312896136      0.00001676798628
|117> *
|118>
|119>
|120>
|121>
|122>
|123>                          ****END OF INPUT****
 Total Charge           Charge          ....    0
 Multiplicity           Mult            ....    1
 Number of Electrons    NEL             ....   68
FINAL SINGLE POINT ENERGY      -385.208813122944
FINAL SINGLE POINT ENERGY      -385.204189592201

CARTESIAN COORDINATES (ANGSTROEM)
---------------------------------
  C     -1.733740   -1.833496   -0.000042
  C     -0.363122   -1.832464   -0.000224
  C      0.360544   -0.615878   -0.000142
  C     -0.360518    0.615872    0.000134
  C     -1.775623    0.579998    0.000316
  C     -2.447202   -0.614809    0.000232
  H      2.320369   -1.516848   -0.000544
  H     -2.276782   -2.770271   -0.000110
  H      0.187202   -2.765981   -0.000432
  C      1.775640   -0.580018   -0.000320
  C      0.363107    1.832478    0.000221
  H     -2.320371    1.516819    0.000534
  H     -3.529901   -0.629914    0.000371
  C      1.733725    1.833495    0.000049
  C      2.447192    0.614820   -0.000224
  H     -0.187232    2.765983    0.000423
  H      2.276767    2.770271    0.000132
  H      3.529891    0.629953   -0.000360

 Multiplicity           Mult            ....    1
 Number of Electrons    NEL             ....   68
 Basis Dimension        Dim             ....  180

ORBITAL ENERGIES
----------------

  NO   OCC          E(Eh)            E(eV)
   0   2.0000     -10.191771      -277.3322
   1   2.0000     -10.191527      -277.3256
   2   2.0000     -10.185987      -277.1748
   3   2.0000     -10.185974      -277.1744
   4   2.0000     -10.185829      -277.1705
   5   2.0000     -10.185824      -277.1703
   6   2.0000     -10.185374      -277.1581
   7   2.0000     -10.185368      -277.1579
   8   2.0000     -10.185351      -277.1575
   9   2.0000     -10.185317      -277.1566
  10   2.0000      -0.868083       -23.6217
  11   2.0000      -0.814545       -22.1649
  12   2.0000      -0.765655       -20.8345
  13   2.0000      -0.732777       -19.9399
  14   2.0000      -0.710915       -19.3450
  15   2.0000      -0.619117       -16.8470
  16   2.0000      -0.605748       -16.4833
  17   2.0000      -0.591170       -16.0865
  18   2.0000      -0.513175       -13.9642
  19   2.0000      -0.503368       -13.6973
  20   2.0000      -0.493222       -13.4212
  21   2.0000      -0.443234       -12.0610
  22   2.0000      -0.441627       -12.0173
  23   2.0000      -0.417638       -11.3645
  24   2.0000      -0.416323       -11.3287
  25   2.0000      -0.397920       -10.8279
  26   2.0000      -0.394753       -10.7418
  27   2.0000      -0.368125       -10.0172
  28   2.0000      -0.338998        -9.2246
  29   2.0000      -0.331164        -9.0114
  30   2.0000      -0.330205        -8.9853
  31   2.0000      -0.289267        -7.8713
  32   2.0000      -0.247954        -6.7472
  33   2.0000      -0.220009        -5.9868
  34   0.0000      -0.041947        -1.1414
  35   0.0000      -0.013041        -0.3549
  36   0.0000       0.026368         0.7175
  37   0.0000       0.070790         1.9263
  38   0.0000       0.086398         2.3510

MULLIKEN ATOMIC CHARGES
-----------------------
   0 C :    0.022607
   1 C :   -0.023205
   2 C :    0.079851
   3 C :    0.079843
   4 C :   -0.023295
   5 C :    0.022139
   6 H :   -0.025919
   7 H :   -0.013216
   8 H :   -0.025944
   9 C :   -0.023296
  10 C :   -0.023201
  11 H :   -0.025919
  12 H :   -0.013018
  13 C :    0.022608
  14 C :    0.022143
  15 H :   -0.025943
  16 H :   -0.013216
  17 H :   -0.013017
Sum of atomic charges:    0.0000000

LOEWDIN ATOMIC CHARGES
----------------------
   0 C :   -0.028864
   1 C :   -0.018036
   2 C :   -0.021305
   3 C :   -0.021303
   4 C :   -0.018058
   5 C :   -0.029027
   6 H :    0.028555
   7 H :    0.029074
   8 H :    0.028557
   9 C :   -0.018056
  10 C :   -0.018033
  11 H :    0.028554
  12 H :    0.029100
  13 C :   -0.028865
  14 C :   -0.029025
  15 H :    0.028558
  16 H :    0.029074
  17 H :    0.029100

  Mayer bond orders larger than 0.100000
B(  0-C ,  1-C ) :   1.4762 B(  0-C ,  5-C ) :   1.2486 B(  0-C ,  7-H ) :   0.9883
B(  1-C ,  2-C ) :   1.2384 B(  1-C ,  8-H ) :   0.9962 B(  2-C ,  3-C ) :   1.2477
B(  2-C ,  9-C ) :   1.2383 B(  3-C ,  4-C ) :   1.2383 B(  3-C , 10-C ) :   1.2384
B(  4-C ,  5-C ) :   1.4764 B(  4-C , 11-H ) :   0.9961 B(  5-C , 12-H ) :   0.9880
B(  6-H ,  9-C ) :   0.9961 B(  9-C , 14-C ) :   1.4764 B( 10-C , 13-C ) :   1.4762
B( 10-C , 15-H ) :   0.9962 B( 13-C , 14-C ) :   1.2487 B( 13-C , 16-H ) :   0.9883
B( 14-C , 17-H ) :   0.9880

-----------------------------------------------------------------------------
         ABSORPTION SPECTRUM VIA TRANSITION ELECTRIC DIPOLE MOMENTS
-----------------------------------------------------------------------------
State   Energy    Wavelength  fosc         T2        TX        TY        TZ
        (cm-1)      (nm)                 (au**2)    (au)      (au)      (au)
-----------------------------------------------------------------------------
   1   35555.1    281.3   0.106134422   0.98272  -0.50118   0.85530   0.00019
   2   36569.9    273.4   0.000021631   0.00019   0.01231   0.00658  -0.00000
   3   46350.7    215.7   1.567429605  11.13289  -2.87986  -1.68501   0.00013
   4   46743.8    213.9   0.000000006   0.00000  -0.00018  -0.00010   0.00000
   5   49618.4    201.5   0.300069253   1.99092  -0.71054   1.21904   0.00027
   6   51286.7    195.0   0.000000004   0.00000  -0.00013  -0.00010   0.00000

FINAL SINGLE POINT ENERGY      -385.159625133161

DIPOLE MOMENT
-------------
                                X             Y             Z
Electronic contribution:      0.00005       0.00000      -0.00001
Nuclear contribution   :     -0.00005       0.00001       0.00001
                        -----------------------------------------
Total Dipole Moment    :      0.00000       0.00001       0.00000
                        -----------------------------------------
Magnitude (a.u.)       :      0.00001
Magnitude (Debye)      :      0.00004

Rotational constants in cm-1:     0.104651     0.041365     0.029647
Rotational constants in MHz :  3137.370576  1240.091757   888.786035

                             ****ORCA TERMINATED NORMALLY****
TOTAL RUN TIME: 0 days 0 hours 6 minutes 48 seconds 569 msec
